ITEM: TIMESTEP
0
ITEM: NUMBER OF ATOMS
7
ITEM: BOX BOUNDS ff ff ff
-10 10
-10 10
-10 10
ITEM: ATOMS id mass x y z vx vy vz fx fy fz
5 1 0 -1 0 0 3 0 0 -19.3184 0
7 1 0 0 -1 0 0 3 0 0 -19.3184
4 1 0 1 0 0 -3 0 0 19.3184 0
1 1 0 0 0 0 0 0 0 0 0
2 1 1 0 0 -3 0 0 19.3184 0 0
3 1 -1 0 0 3 0 0 -19.3184 0 0
6 1 0 0 1 0 0 -3 0 0 19.3184
ITEM: POTENTIAL ENERGY
-5.43457
ITEM: KINETIC ENERGY
27
ITEM: TIMESTEP
1
ITEM: NUMBER OF ATOMS
7
ITEM: BOX BOUNDS ff ff ff
-10 10
-10 10
-10 10
ITEM: ATOMS id mass x y z vx vy vz fx fy fz
7 1 0 0 -0.99701 0 0 2.98002 0 0 -20.6442
5 1 0 -0.99701 0 0 2.98002 0 0 -20.6442 0
3 1 -0.99701 0 0 2.98002 0 0 -20.6442 0 0
1 1 0 0 0 0 0 0 0 0 0
2 1 0.99701 0 0 -2.98002 0 0 20.6442 0 0
4 1 0 0.99701 0 0 -2.98002 0 0 20.6442 0
6 1 0 0 0.99701 0 0 -2.98002 0 0 20.6442
ITEM: POTENTIAL ENERGY
-5.07617
ITEM: KINETIC ENERGY
26.6415
ITEM: TIMESTEP
2
ITEM: NUMBER OF ATOMS
7
ITEM: BOX BOUNDS ff ff ff
-10 10
-10 10
-10 10
ITEM: ATOMS id mass x y z vx vy vz fx fy fz
3 1 -0.99404 0 0 2.95868 0 0 -22.029 0 0
7 1 0 0 -0.99404 0 0 2.95868 0 0 -22.029
5 1 0 -0.99404 0 0 2.95868 0 0 -22.029 0
1 1 0 0 0 0 0 0 0 0 0
2 1 0.99404 0 0 -2.95868 0 0 22.029 0 0
4 1 0 0.99404 0 0 -2.95868 0 0 22.029 0
6 1 0 0 0.99404 0 0 -2.95868 0 0 22.029
ITEM: POTENTIAL ENERGY
-4.69609
ITEM: KINETIC ENERGY
26.2614
ITEM: TIMESTEP
3
ITEM: NUMBER OF ATOMS
7
ITEM: BOX BOUNDS ff ff ff
-10 10
-10 10
-10 10
ITEM: ATOMS id mass x y z vx vy vz fx fy fz
7 1 0 0 -0.991092 0 0 2.93593 0 0 -23.4739
5 1 0 -0.991092 0 0 2.93593 0 0 -23.4739 0
3 1 -0.991092 0 0 2.93593 0 0 -23.4739 0 0
1 1 0 0 0 0 0 0 0 0 0
2 1 0.991092 0 0 -2.93593 0 0 23.4739 0 0
4 1 0 0.991092 0 0 -2.93593 0 0 23.4739 0
6 1 0 0 0.991092 0 0 -2.93593 0 0 23.4739
ITEM: POTENTIAL ENERGY
-4.29381
ITEM: KINETIC ENERGY
25.8591
ITEM: TIMESTEP
4
ITEM: NUMBER OF ATOMS
7
ITEM: BOX BOUNDS ff ff ff
-10 10
-10 10
-10 10
ITEM: ATOMS id mass x y z vx vy vz fx fy fz
7 1 0 0 -0.988168 0 0 2.9117 0 0 -24.98
4 1 0 0.988168 0 0 -2.9117 0 0 24.98 0
5 1 0 -0.988168 0 0 2.9117 0 0 -24.98 0
3 1 -0.988168 0 0 2.9117 0 0 -24.98 0 0
1 1 0 0 0 0 0 0 0 0 0
2 1 0.988168 0 0 -2.9117 0 0 24.98 0 0
6 1 0 0 0.988168 0 0 -2.9117 0 0 24.98
ITEM: POTENTIAL ENERGY
-3.86885
ITEM: KINETIC ENERGY
25.4341
ITEM: TIMESTEP
5
ITEM: NUMBER OF ATOMS
7
ITEM: BOX BOUNDS ff ff ff
-10 10
-10 10
-10 10
ITEM: ATOMS id mass x y z vx vy vz fx fy fz
7 1 0 0 -0.985269 0 0 2.88594 0 0 -26.5483
1 1 0 0 0 0 0 0 0 0 0
3 1 -0.985269 0 0 2.88594 0 0 -26.5483 0 0
5 1 0 -0.985269 0 0 2.88594 0 0 -26.5483 0
2 1 0.985269 0 0 -2.88594 0 0 26.5483 0 0
4 1 0 0.985269 0 0 -2.88594 0 0 26.5483 0
6 1 0 0 0.985269 0 0 -2.88594 0 0 26.5483
ITEM: POTENTIAL ENERGY
-3.42079
ITEM: KINETIC ENERGY
24.9859
ITEM: TIMESTEP
6
ITEM: NUMBER OF ATOMS
7
ITEM: BOX BOUNDS ff ff ff
-10 10
-10 10
-10 10
ITEM: ATOMS id mass x y z vx vy vz fx fy fz
7 1 0 0 -0.982396 0 0 2.85858 0 0 -28.1796
6 1 0 0 0.982396 0 0 -2.85858 0 0 28.1796
5 1 0 -0.982396 0 0 2.85858 0 0 -28.1796 0
1 1 0 0 0 0 0 0 0 0 0
3 1 -0.982396 0 0 2.85858 0 0 -28.1796 0 0
2 1 0.982396 0 0 -2.85858 0 0 28.1796 0 0
4 1 0 0.982396 0 0 -2.85858 0 0 28.1796 0
ITEM: POTENTIAL ENERGY
-2.94926
ITEM: KINETIC ENERGY
24.5144
ITEM: TIMESTEP
7
ITEM: NUMBER OF ATOMS
7
ITEM: BOX BOUNDS ff ff ff
-10 10
-10 10
-10 10
ITEM: ATOMS id mass x y z vx vy vz fx fy fz
7 1 0 0 -0.979552 0 0 2.82955 0 0 -29.8743
5 1 0 -0.979552 0 0 2.82955 0 0 -29.8743 0
1 1 0 0 0 0 0 0 0 0 0
3 1 -0.979552 0 0 2.82955 0 0 -29.8743 0 0
2 1 0.979552 0 0 -2.82955 0 0 29.8743 0 0
4 1 0 0.979552 0 0 -2.82955 0 0 29.8743 0
6 1 0 0 0.979552 0 0 -2.82955 0 0 29.8743
ITEM: POTENTIAL ENERGY
-2.45397
ITEM: KINETIC ENERGY
24.019
ITEM: TIMESTEP
8
ITEM: NUMBER OF ATOMS
7
ITEM: BOX BOUNDS ff ff ff
-10 10
-10 10
-10 10
ITEM: ATOMS id mass x y z vx vy vz fx fy fz
7 1 0 0 -0.976737 0 0 2.79879 0 0 -31.6329
5 1 0 -0.976737 0 0 2.79879 0 0 -31.6329 0
1 1 0 0 0 0 0 0 0 0 0
3 1 -0.976737 0 0 2.79879 0 0 -31.6329 0 0
2 1 0.976737 0 0 -2.79879 0 0 31.6329 0 0
4 1 0 0.976737 0 0 -2.79879 0 0 31.6329 0
6 1 0 0 0.976737 0 0 -2.79879 0 0 31.6329
ITEM: POTENTIAL ENERGY
-1.93473
ITEM: KINETIC ENERGY
23.4998
ITEM: TIMESTEP
9
ITEM: NUMBER OF ATOMS
7
ITEM: BOX BOUNDS ff ff ff
-10 10
-10 10
-10 10
ITEM: ATOMS id mass x y z vx vy vz fx fy fz
7 1 0 0 -0.973954 0 0 2.76625 0 0 -33.4553
5 1 0 -0.973954 0 0 2.76625 0 0 -33.4553 0
3 1 -0.973954 0 0 2.76625 0 0 -33.4553 0 0
1 1 0 0 0 0 0 0 0 0 0
2 1 0.973954 0 0 -2.76625 0 0 33.4553 0 0
4 1 0 0.973954 0 0 -2.76625 0 0 33.4553 0
6 1 0 0 0.973954 0 0 -2.76625 0 0 33.4553
ITEM: POTENTIAL ENERGY
-1.39143
ITEM: KINETIC ENERGY
22.9564
ITEM: TIMESTEP
10
ITEM: NUMBER OF ATOMS
7
ITEM: BOX BOUNDS ff ff ff
-10 10
-10 10
-10 10
ITEM: ATOMS id mass x y z vx vy vz fx fy fz
7 1 0 0 -0.971205 0 0 2.73185 0 0 -35.3414
5 1 0 -0.971205 0 0 2.73185 0 0 -35.3414 0
1 1 0 0 0 0 0 0 0 0 0
3 1 -0.971205 0 0 2.73185 0 0 -35.3414 0 0
2 1 0.971205 0 0 -2.73185 0 0 35.3414 0 0
6 1 0 0 0.971205 0 0 -2.73185 0 0 35.3414
4 1 0 0.971205 0 0 -2.73185 0 0 35.3414 0
ITEM: POTENTIAL ENERGY
-0.824079
ITEM: KINETIC ENERGY
22.3891
ITEM: TIMESTEP
11
ITEM: NUMBER OF ATOMS
7
ITEM: BOX BOUNDS ff ff ff
-10 10
-10 10
-10 10
ITEM: ATOMS id mass x y z vx vy vz fx fy fz
7 1 0 0 -0.96849 0 0 2.69554 0 0 -37.2904
5 1 0 -0.96849 0 0 2.69554 0 0 -37.2904 0
1 1 0 0 0 0 0 0 0 0 0
3 1 -0.96849 0 0 2.69554 0 0 -37.2904 0 0
2 1 0.96849 0 0 -2.69554 0 0 37.2904 0 0
4 1 0 0.96849 0 0 -2.69554 0 0 37.2904 0
6 1 0 0 0.96849 0 0 -2.69554 0 0 37.2904
ITEM: POTENTIAL ENERGY
-0.232792
ITEM: KINETIC ENERGY
21.7978
ITEM: TIMESTEP
12
ITEM: NUMBER OF ATOMS
7
ITEM: BOX BOUNDS ff ff ff
-10 10
-10 10
-10 10
ITEM: ATOMS id mass x y z vx vy vz fx fy fz
7 1 0 0 -0.965814 0 0 2.65724 0 0 -39.3014
5 1 0 -0.965814 0 0 2.65724 0 0 -39.3014 0
1 1 0 0 0 0 0 0 0 0 0
3 1 -0.965814 0 0 2.65724 0 0 -39.3014 0 0
6 1 0 0 0.965814 0 0 -2.65724 0 0 39.3014
4 1 0 0.965814 0 0 -2.65724 0 0 39.3014 0
2 1 0.965814 0 0 -2.65724 0 0 39.3014 0 0
ITEM: POTENTIAL ENERGY
0.382171
ITEM: KINETIC ENERGY
21.1828
ITEM: TIMESTEP
13
ITEM: NUMBER OF ATOMS
7
ITEM: BOX BOUNDS ff ff ff
-10 10
-10 10
-10 10
ITEM: ATOMS id mass x y z vx vy vz fx fy fz
7 1 0 0 -0.963176 0 0 2.6169 0 0 -41.3732
5 1 0 -0.963176 0 0 2.6169 0 0 -41.3732 0
3 1 -0.963176 0 0 2.6169 0 0 -41.3732 0 0
1 1 0 0 0 0 0 0 0 0 0
2 1 0.963176 0 0 -2.6169 0 0 41.3732 0 0
4 1 0 0.963176 0 0 -2.6169 0 0 41.3732 0
6 1 0 0 0.963176 0 0 -2.6169 0 0 41.3732
ITEM: POTENTIAL ENERGY
1.02041
ITEM: KINETIC ENERGY
20.5445
ITEM: TIMESTEP
14
ITEM: NUMBER OF ATOMS
7
ITEM: BOX BOUNDS ff ff ff
-10 10
-10 10
-10 10
ITEM: ATOMS id mass x y z vx vy vz fx fy fz
7 1 0 0 -0.96058 0 0 2.57446 0 0 -43.5038
5 1 0 -0.96058 0 0 2.57446 0 0 -43.5038 0
1 1 0 0 0 0 0 0 0 0 0
3 1 -0.96058 0 0 2.57446 0 0 -43.5038 0 0
2 1 0.96058 0 0 -2.57446 0 0 43.5038 0 0
4 1 0 0.96058 0 0 -2.57446 0 0 43.5038 0
6 1 0 0 0.96058 0 0 -2.57446 0 0 43.5038
ITEM: POTENTIAL ENERGY
1.68137
ITEM: KINETIC ENERGY
19.8836
ITEM: TIMESTEP
15
ITEM: NUMBER OF ATOMS
7
ITEM: BOX BOUNDS ff ff ff
-10 10
-10 10
-10 10
ITEM: ATOMS id mass x y z vx vy vz fx fy fz
7 1 0 0 -0.958027 0 0 2.52987 0 0 -45.691
5 1 0 -0.958027 0 0 2.52987 0 0 -45.691 0
1 1 0 0 0 0 0 0 0 0 0
2 1 0.958027 0 0 -2.52987 0 0 45.691 0 0
3 1 -0.958027 0 0 2.52987 0 0 -45.691 0 0
4 1 0 0.958027 0 0 -2.52987 0 0 45.691 0
6 1 0 0 0.958027 0 0 -2.52987 0 0 45.691
ITEM: POTENTIAL ENERGY
2.36431
ITEM: KINETIC ENERGY
19.2007
ITEM: TIMESTEP
16
ITEM: NUMBER OF ATOMS
7
ITEM: BOX BOUNDS ff ff ff
-10 10
-10 10
-10 10
ITEM: ATOMS id mass x y z vx vy vz fx fy fz
7 1 0 0 -0.95552 0 0 2.48306 0 0 -47.932
6 1 0 0 0.95552 0 0 -2.48306 0 0 47.932
5 1 0 -0.95552 0 0 2.48306 0 0 -47.932 0
3 1 -0.95552 0 0 2.48306 0 0 -47.932 0 0
1 1 0 0 0 0 0 0 0 0 0
2 1 0.95552 0 0 -2.48306 0 0 47.932 0 0
4 1 0 0.95552 0 0 -2.48306 0 0 47.932 0
ITEM: POTENTIAL ENERGY
3.06834
ITEM: KINETIC ENERGY
18.4967
ITEM: TIMESTEP
17
ITEM: NUMBER OF ATOMS
7
ITEM: BOX BOUNDS ff ff ff
-10 10
-10 10
-10 10
ITEM: ATOMS id mass x y z vx vy vz fx fy fz
7 1 0 0 -0.953061 0 0 2.43398 0 0 -50.2234
5 1 0 -0.953061 0 0 2.43398 0 0 -50.2234 0
1 1 0 0 0 0 0 0 0 0 0
3 1 -0.953061 0 0 2.43398 0 0 -50.2234 0 0
2 1 0.953061 0 0 -2.43398 0 0 50.2234 0 0
4 1 0 0.953061 0 0 -2.43398 0 0 50.2234 0
6 1 0 0 0.953061 0 0 -2.43398 0 0 50.2234
ITEM: POTENTIAL ENERGY
3.79234
ITEM: KINETIC ENERGY
17.7728
ITEM: TIMESTEP
18
ITEM: NUMBER OF ATOMS
7
ITEM: BOX BOUNDS ff ff ff
-10 10
-10 10
-10 10
ITEM: ATOMS id mass x y z vx vy vz fx fy fz
7 1 0 0 -0.950652 0 0 2.38259 0 0 -52.5614
5 1 0 -0.950652 0 0 2.38259 0 0 -52.5614 0
3 1 -0.950652 0 0 2.38259 0 0 -52.5614 0 0
1 1 0 0 0 0 0 0 0 0 0
4 1 0 0.950652 0 0 -2.38259 0 0 52.5614 0
2 1 0.950652 0 0 -2.38259 0 0 52.5614 0 0
6 1 0 0 0.950652 0 0 -2.38259 0 0 52.5614
ITEM: POTENTIAL ENERGY
4.53501
ITEM: KINETIC ENERGY
17.0301
ITEM: TIMESTEP
19
ITEM: NUMBER OF ATOMS
7
ITEM: BOX BOUNDS ff ff ff
-10 10
-10 10
-10 10
ITEM: ATOMS id mass x y z vx vy vz fx fy fz
7 1 0 0 -0.948296 0 0 2.32883 0 0 -54.9415
5 1 0 -0.948296 0 0 2.32883 0 0 -54.9415 0
3 1 -0.948296 0 0 2.32883 0 0 -54.9415 0 0
1 1 0 0 0 0 0 0 0 0 0
2 1 0.948296 0 0 -2.32883 0 0 54.9415 0 0
4 1 0 0.948296 0 0 -2.32883 0 0 54.9415 0
6 1 0 0 0.948296 0 0 -2.32883 0 0 54.9415
ITEM: POTENTIAL ENERGY
5.29483
ITEM: KINETIC ENERGY
16.2704
ITEM: TIMESTEP
20
ITEM: NUMBER OF ATOMS
7
ITEM: BOX BOUNDS ff ff ff
-10 10
-10 10
-10 10
ITEM: ATOMS id mass x y z vx vy vz fx fy fz
7 1 0 0 -0.945994 0 0 2.27268 0 0 -57.3585
6 1 0 0 0.945994 0 0 -2.27268 0 0 57.3585
5 1 0 -0.945994 0 0 2.27268 0 0 -57.3585 0
3 1 -0.945994 0 0 2.27268 0 0 -57.3585 0 0
1 1 0 0 0 0 0 0 0 0 0
2 1 0.945994 0 0 -2.27268 0 0 57.3585 0 0
4 1 0 0.945994 0 0 -2.27268 0 0 57.3585 0
ITEM: POTENTIAL ENERGY
6.07005
ITEM: KINETIC ENERGY
15.4953
ITEM: TIMESTEP
21
ITEM: NUMBER OF ATOMS
7
ITEM: BOX BOUNDS ff ff ff
-10 10
-10 10
-10 10
ITEM: ATOMS id mass x y z vx vy vz fx fy fz
7 1 0 0 -0.94375 0 0 2.2141 0 0 -59.8067
5 1 0 -0.94375 0 0 2.2141 0 0 -59.8067 0
1 1 0 0 0 0 0 0 0 0 0
3 1 -0.94375 0 0 2.2141 0 0 -59.8067 0 0
2 1 0.94375 0 0 -2.2141 0 0 59.8067 0 0
6 1 0 0 0.94375 0 0 -2.2141 0 0 59.8067
4 1 0 0.94375 0 0 -2.2141 0 0 59.8067 0
ITEM: POTENTIAL ENERGY
6.85871
ITEM: KINETIC ENERGY
14.7067
ITEM: TIMESTEP
22
ITEM: NUMBER OF ATOMS
7
ITEM: BOX BOUNDS ff ff ff
-10 10
-10 10
-10 10
ITEM: ATOMS id mass x y z vx vy vz fx fy fz
7 1 0 0 -0.941566 0 0 2.15306 0 0 -62.2798
5 1 0 -0.941566 0 0 2.15306 0 0 -62.2798 0
3 1 -0.941566 0 0 2.15306 0 0 -62.2798 0 0
1 1 0 0 0 0 0 0 0 0 0
4 1 0 0.941566 0 0 -2.15306 0 0 62.2798 0
2 1 0.941566 0 0 -2.15306 0 0 62.2798 0 0
6 1 0 0 0.941566 0 0 -2.15306 0 0 62.2798
ITEM: POTENTIAL ENERGY
7.65859
ITEM: KINETIC ENERGY
13.907
ITEM: TIMESTEP
23
ITEM: NUMBER OF ATOMS
7
ITEM: BOX BOUNDS ff ff ff
-10 10
-10 10
-10 10
ITEM: ATOMS id mass x y z vx vy vz fx fy fz
7 1 0 0 -0.939444 0 0 2.08953 0 0 -64.7706
5 1 0 -0.939444 0 0 2.08953 0 0 -64.7706 0
3 1 -0.939444 0 0 2.08953 0 0 -64.7706 0 0
1 1 0 0 0 0 0 0 0 0 0
2 1 0.939444 0 0 -2.08953 0 0 64.7706 0 0
6 1 0 0 0.939444 0 0 -2.08953 0 0 64.7706
4 1 0 0.939444 0 0 -2.08953 0 0 64.7706 0
ITEM: POTENTIAL ENERGY
8.46727
ITEM: KINETIC ENERGY
13.0984
ITEM: TIMESTEP
24
ITEM: NUMBER OF ATOMS
7
ITEM: BOX BOUNDS ff ff ff
-10 10
-10 10
-10 10
ITEM: ATOMS id mass x y z vx vy vz fx fy fz
7 1 0 0 -0.937387 0 0 2.02351 0 0 -67.2714
5 1 0 -0.937387 0 0 2.02351 0 0 -67.2714 0
1 1 0 0 0 0 0 0 0 0 0
3 1 -0.937387 0 0 2.02351 0 0 -67.2714 0 0
4 1 0 0.937387 0 0 -2.02351 0 0 67.2714 0
2 1 0.937387 0 0 -2.02351 0 0 67.2714 0 0
6 1 0 0 0.937387 0 0 -2.02351 0 0 67.2714
ITEM: POTENTIAL ENERGY
9.28207
ITEM: KINETIC ENERGY
12.2838
ITEM: TIMESTEP
25
ITEM: NUMBER OF ATOMS
7
ITEM: BOX BOUNDS ff ff ff
-10 10
-10 10
-10 10
ITEM: ATOMS id mass x y z vx vy vz fx fy fz
7 1 0 0 -0.935397 0 0 1.95499 0 0 -69.774
6 1 0 0 0.935397 0 0 -1.95499 0 0 69.774
5 1 0 -0.935397 0 0 1.95499 0 0 -69.774 0
3 1 -0.935397 0 0 1.95499 0 0 -69.774 0 0
1 1 0 0 0 0 0 0 0 0 0
2 1 0.935397 0 0 -1.95499 0 0 69.774 0 0
4 1 0 0.935397 0 0 -1.95499 0 0 69.774 0
ITEM: POTENTIAL ENERGY
10.1001
ITEM: KINETIC ENERGY
11.466
ITEM: TIMESTEP
26
ITEM: NUMBER OF ATOMS
7
ITEM: BOX BOUNDS ff ff ff
-10 10
-10 10
-10 10
ITEM: ATOMS id mass x y z vx vy vz fx fy fz
7 1 0 0 -0.933477 0 0 1.88397 0 0 -72.2693
4 1 0 0.933477 0 0 -1.88397 0 0 72.2693 0
3 1 -0.933477 0 0 1.88397 0 0 -72.2693 0 0
5 1 0 -0.933477 0 0 1.88397 0 0 -72.2693 0
1 1 0 0 0 0 0 0 0 0 0
2 1 0.933477 0 0 -1.88397 0 0 72.2693 0 0
6 1 0 0 0.933477 0 0 -1.88397 0 0 72.2693
ITEM: POTENTIAL ENERGY
10.9182
ITEM: KINETIC ENERGY
10.648
ITEM: TIMESTEP
27
ITEM: NUMBER OF ATOMS
7
ITEM: BOX BOUNDS ff ff ff
-10 10
-10 10
-10 10
ITEM: ATOMS id mass x y z vx vy vz fx fy fz
7 1 0 0 -0.931629 0 0 1.81046 0 0 -74.7478
2 1 0.931629 0 0 -1.81046 0 0 74.7478 0 0
5 1 0 -0.931629 0 0 1.81046 0 0 -74.7478 0
4 1 0 0.931629 0 0 -1.81046 0 0 74.7478 0
1 1 0 0 0 0 0 0 0 0 0
3 1 -0.931629 0 0 1.81046 0 0 -74.7478 0 0
6 1 0 0 0.931629 0 0 -1.81046 0 0 74.7478
ITEM: POTENTIAL ENERGY
11.7332
ITEM: KINETIC ENERGY
9.83329
ITEM: TIMESTEP
28
ITEM: NUMBER OF ATOMS
7
ITEM: BOX BOUNDS ff ff ff
-10 10
-10 10
-10 10
ITEM: ATOMS id mass x y z vx vy vz fx fy fz
7 1 0 0 -0.929856 0 0 1.73449 0 0 -77.1994
6 1 0 0 0.929856 0 0 -1.73449 0 0 77.1994
5 1 0 -0.929856 0 0 1.73449 0 0 -77.1994 0
1 1 0 0 0 0 0 0 0 0 0
3 1 -0.929856 0 0 1.73449 0 0 -77.1994 0 0
2 1 0.929856 0 0 -1.73449 0 0 77.1994 0 0
4 1 0 0.929856 0 0 -1.73449 0 0 77.1994 0
ITEM: POTENTIAL ENERGY
12.5413
ITEM: KINETIC ENERGY
9.02533
ITEM: TIMESTEP
29
ITEM: NUMBER OF ATOMS
7
ITEM: BOX BOUNDS ff ff ff
-10 10
-10 10
-10 10
ITEM: ATOMS id mass x y z vx vy vz fx fy fz
7 1 0 0 -0.92816 0 0 1.65608 0 0 -79.6136
5 1 0 -0.92816 0 0 1.65608 0 0 -79.6136 0
3 1 -0.92816 0 0 1.65608 0 0 -79.6136 0 0
1 1 0 0 0 0 0 0 0 0 0
2 1 0.92816 0 0 -1.65608 0 0 79.6136 0 0
4 1 0 0.92816 0 0 -1.65608 0 0 79.6136 0
6 1 0 0 0.92816 0 0 -1.65608 0 0 79.6136
ITEM: POTENTIAL ENERGY
13.3391
ITEM: KINETIC ENERGY
8.2278
ITEM: TIMESTEP
30
ITEM: NUMBER OF ATOMS
7
ITEM: BOX BOUNDS ff ff ff
-10 10
-10 10
-10 10
ITEM: ATOMS id mass x y z vx vy vz fx fy fz
7 1 0 0 -0.926544 0 0 1.57528 0 0 -81.9793
5 1 0 -0.926544 0 0 1.57528 0 0 -81.9793 0
1 1 0 0 0 0 0 0 0 0 0
3 1 -0.926544 0 0 1.57528 0 0 -81.9793 0 0
2 1 0.926544 0 0 -1.57528 0 0 81.9793 0 0
4 1 0 0.926544 0 0 -1.57528 0 0 81.9793 0
6 1 0 0 0.926544 0 0 -1.57528 0 0 81.9793
ITEM: POTENTIAL ENERGY
14.1226
ITEM: KINETIC ENERGY
7.44455
ITEM: TIMESTEP
31
ITEM: NUMBER OF ATOMS
7
ITEM: BOX BOUNDS ff ff ff
-10 10
-10 10
-10 10
ITEM: ATOMS id mass x y z vx vy vz fx fy fz
7 1 0 0 -0.92501 0 0 1.49215 0 0 -84.2854
1 1 0 0 0 0 0 0 0 0 0
3 1 -0.92501 0 0 1.49215 0 0 -84.2854 0 0
5 1 0 -0.92501 0 0 1.49215 0 0 -84.2854 0
4 1 0 0.92501 0 0 -1.49215 0 0 84.2854 0
2 1 0.92501 0 0 -1.49215 0 0 84.2854 0 0
6 1 0 0 0.92501 0 0 -1.49215 0 0 84.2854
ITEM: POTENTIAL ENERGY
14.8878
ITEM: KINETIC ENERGY
6.67954
ITEM: TIMESTEP
32
ITEM: NUMBER OF ATOMS
7
ITEM: BOX BOUNDS ff ff ff
-10 10
-10 10
-10 10
ITEM: ATOMS id mass x y z vx vy vz fx fy fz
7 1 0 0 -0.92356 0 0 1.40675 0 0 -86.5201
1 1 0 0 0 0 0 0 0 0 0
3 1 -0.92356 0 0 1.40675 0 0 -86.5201 0 0
5 1 0 -0.92356 0 0 1.40675 0 0 -86.5201 0
2 1 0.92356 0 0 -1.40675 0 0 86.5201 0 0
4 1 0 0.92356 0 0 -1.40675 0 0 86.5201 0
6 1 0 0 0.92356 0 0 -1.40675 0 0 86.5201
ITEM: POTENTIAL ENERGY
15.6308
ITEM: KINETIC ENERGY
5.93682
ITEM: TIMESTEP
33
ITEM: NUMBER OF ATOMS
7
ITEM: BOX BOUNDS ff ff ff
-10 10
-10 10
-10 10
ITEM: ATOMS id mass x y z vx vy vz fx fy fz
7 1 0 0 -0.922196 0 0 1.31915 0 0 -88.6718
4 1 0 0.922196 0 0 -1.31915 0 0 88.6718 0
5 1 0 -0.922196 0 0 1.31915 0 0 -88.6718 0
3 1 -0.922196 0 0 1.31915 0 0 -88.6718 0 0
1 1 0 0 0 0 0 0 0 0 0
2 1 0.922196 0 0 -1.31915 0 0 88.6718 0 0
6 1 0 0 0.922196 0 0 -1.31915 0 0 88.6718
ITEM: POTENTIAL ENERGY
16.3474
ITEM: KINETIC ENERGY
5.22049
ITEM: TIMESTEP
34
ITEM: NUMBER OF ATOMS
7
ITEM: BOX BOUNDS ff ff ff
-10 10
-10 10
-10 10
ITEM: ATOMS id mass x y z vx vy vz fx fy fz
7 1 0 0 -0.920921 0 0 1.22945 0 0 -90.7286
3 1 -0.920921 0 0 1.22945 0 0 -90.7286 0 0
1 1 0 0 0 0 0 0 0 0 0
5 1 0 -0.920921 0 0 1.22945 0 0 -90.7286 0
2 1 0.920921 0 0 -1.22945 0 0 90.7286 0 0
4 1 0 0.920921 0 0 -1.22945 0 0 90.7286 0
6 1 0 0 0.920921 0 0 -1.22945 0 0 90.7286
ITEM: POTENTIAL ENERGY
17.0335
ITEM: KINETIC ENERGY
4.53466
ITEM: TIMESTEP
35
ITEM: NUMBER OF ATOMS
7
ITEM: BOX BOUNDS ff ff ff
-10 10
-10 10
-10 10
ITEM: ATOMS id mass x y z vx vy vz fx fy fz
7 1 0 0 -0.919737 0 0 1.13775 0 0 -92.6791
4 1 0 0.919737 0 0 -1.13775 0 0 92.6791 0
5 1 0 -0.919737 0 0 1.13775 0 0 -92.6791 0
3 1 -0.919737 0 0 1.13775 0 0 -92.6791 0 0
6 1 0 0 0.919737 0 0 -1.13775 0 0 92.6791
1 1 0 0 0 0 0 0 0 0 0
2 1 0.919737 0 0 -1.13775 0 0 92.6791 0 0
ITEM: POTENTIAL ENERGY
17.6849
ITEM: KINETIC ENERGY
3.88341
ITEM: TIMESTEP
36
ITEM: NUMBER OF ATOMS
7
ITEM: BOX BOUNDS ff ff ff
-10 10
-10 10
-10 10
ITEM: ATOMS id mass x y z vx vy vz fx fy fz
7 1 0 0 -0.918646 0 0 1.04415 0 0 -94.5117
2 1 0.918646 0 0 -1.04415 0 0 94.5117 0 0
5 1 0 -0.918646 0 0 1.04415 0 0 -94.5117 0
3 1 -0.918646 0 0 1.04415 0 0 -94.5117 0 0
4 1 0 0.918646 0 0 -1.04415 0 0 94.5117 0
1 1 0 0 0 0 0 0 0 0 0
6 1 0 0 0.918646 0 0 -1.04415 0 0 94.5117
ITEM: POTENTIAL ENERGY
18.2978
ITEM: KINETIC ENERGY
3.27076
ITEM: TIMESTEP
37
ITEM: NUMBER OF ATOMS
7
ITEM: BOX BOUNDS ff ff ff
-10 10
-10 10
-10 10
ITEM: ATOMS id mass x y z vx vy vz fx fy fz
7 1 0 0 -0.917649 0 0 0.948789 0 0 -96.2152
4 1 0 0.917649 0 0 -0.948789 0 0 96.2152 0
5 1 0 -0.917649 0 0 0.948789 0 0 -96.2152 0
6 1 0 0 0.917649 0 0 -0.948789 0 0 96.2152
3 1 -0.917649 0 0 0.948789 0 0 -96.2152 0 0
1 1 0 0 0 0 0 0 0 0 0
2 1 0.917649 0 0 -0.948789 0 0 96.2152 0 0
ITEM: POTENTIAL ENERGY
18.8682
ITEM: KINETIC ENERGY
2.7006
ITEM: TIMESTEP
38
ITEM: NUMBER OF ATOMS
7
ITEM: BOX BOUNDS ff ff ff
-10 10
-10 10
-10 10
ITEM: ATOMS id mass x y z vx vy vz fx fy fz
7 1 0 0 -0.916748 0 0 0.851792 0 0 -97.7792
5 1 0 -0.916748 0 0 0.851792 0 0 -97.7792 0
3 1 -0.916748 0 0 0.851792 0 0 -97.7792 0 0
1 1 0 0 0 0 0 0 0 0 0
2 1 0.916748 0 0 -0.851792 0 0 97.7792 0 0
4 1 0 0.916748 0 0 -0.851792 0 0 97.7792 0
6 1 0 0 0.916748 0 0 -0.851792 0 0 97.7792
ITEM: POTENTIAL ENERGY
19.3924
ITEM: KINETIC ENERGY
2.17665
ITEM: TIMESTEP
39
ITEM: NUMBER OF ATOMS
7
ITEM: BOX BOUNDS ff ff ff
-10 10
-10 10
-10 10
ITEM: ATOMS id mass x y z vx vy vz fx fy fz
7 1 0 0 -0.915945 0 0 0.753306 0 0 -99.1935
4 1 0 0.915945 0 0 -0.753306 0 0 99.1935 0
5 1 0 -0.915945 0 0 0.753306 0 0 -99.1935 0
3 1 -0.915945 0 0 0.753306 0 0 -99.1935 0 0
1 1 0 0 0 0 0 0 0 0 0
2 1 0.915945 0 0 -0.753306 0 0 99.1935 0 0
6 1 0 0 0.915945 0 0 -0.753306 0 0 99.1935
ITEM: POTENTIAL ENERGY
19.8668
ITEM: KINETIC ENERGY
1.70241
ITEM: TIMESTEP
40
ITEM: NUMBER OF ATOMS
7
ITEM: BOX BOUNDS ff ff ff
-10 10
-10 10
-10 10
ITEM: ATOMS id mass x y z vx vy vz fx fy fz
7 1 0 0 -0.915242 0 0 0.653484 0 0 -100.449
1 1 0 0 0 0 0 0 0 0 0
5 1 0 -0.915242 0 0 0.653484 0 0 -100.449 0
6 1 0 0 0.915242 0 0 -0.653484 0 0 100.449
3 1 -0.915242 0 0 0.653484 0 0 -100.449 0 0
4 1 0 0.915242 0 0 -0.653484 0 0 100.449 0
2 1 0.915242 0 0 -0.653484 0 0 100.449 0 0
ITEM: POTENTIAL ENERGY
20.2883
ITEM: KINETIC ENERGY
1.28113
ITEM: TIMESTEP
41
ITEM: NUMBER OF ATOMS
7
ITEM: BOX BOUNDS ff ff ff
-10 10
-10 10
-10 10
ITEM: ATOMS id mass x y z vx vy vz fx fy fz
7 1 0 0 -0.914639 0 0 0.552491 0 0 -101.537
4 1 0 0.914639 0 0 -0.552491 0 0 101.537 0
3 1 -0.914639 0 0 0.552491 0 0 -101.537 0 0
5 1 0 -0.914639 0 0 0.552491 0 0 -101.537 0
1 1 0 0 0 0 0 0 0 0 0
2 1 0.914639 0 0 -0.552491 0 0 101.537 0 0
6 1 0 0 0.914639 0 0 -0.552491 0 0 101.537
ITEM: POTENTIAL ENERGY
20.6538
ITEM: KINETIC ENERGY
0.91574
ITEM: TIMESTEP
42
ITEM: NUMBER OF ATOMS
7
ITEM: BOX BOUNDS ff ff ff
-10 10
-10 10
-10 10
ITEM: ATOMS id mass x y z vx vy vz fx fy fz
7 1 0 0 -0.914137 0 0 0.450498 0 0 -102.451
5 1 0 -0.914137 0 0 0.450498 0 0 -102.451 0
3 1 -0.914137 0 0 0.450498 0 0 -102.451 0 0
1 1 0 0 0 0 0 0 0 0 0
2 1 0.914137 0 0 -0.450498 0 0 102.451 0 0
4 1 0 0.914137 0 0 -0.450498 0 0 102.451 0
6 1 0 0 0.914137 0 0 -0.450498 0 0 102.451
ITEM: POTENTIAL ENERGY
20.9609
ITEM: KINETIC ENERGY
0.608844
ITEM: TIMESTEP
43
ITEM: NUMBER OF ATOMS
7
ITEM: BOX BOUNDS ff ff ff
-10 10
-10 10
-10 10
ITEM: ATOMS id mass x y z vx vy vz fx fy fz
7 1 0 0 -0.913738 0 0 0.347681 0 0 -103.183
6 1 0 0 0.913738 0 0 -0.347681 0 0 103.183
5 1 0 -0.913738 0 0 0.347681 0 0 -103.183 0
3 1 -0.913738 0 0 0.347681 0 0 -103.183 0 0
1 1 0 0 0 0 0 0 0 0 0
2 1 0.913738 0 0 -0.347681 0 0 103.183 0 0
4 1 0 0.913738 0 0 -0.347681 0 0 103.183 0
ITEM: POTENTIAL ENERGY
21.2072
ITEM: KINETIC ENERGY
0.362646
ITEM: TIMESTEP
44
ITEM: NUMBER OF ATOMS
7
ITEM: BOX BOUNDS ff ff ff
-10 10
-10 10
-10 10
ITEM: ATOMS id mass x y z vx vy vz fx fy fz
7 1 0 0 -0.913441 0 0 0.244224 0 0 -103.729
5 1 0 -0.913441 0 0 0.244224 0 0 -103.729 0
3 1 -0.913441 0 0 0.244224 0 0 -103.729 0 0
1 1 0 0 0 0 0 0 0 0 0
2 1 0.913441 0 0 -0.244224 0 0 103.729 0 0
4 1 0 0.913441 0 0 -0.244224 0 0 103.729 0
6 1 0 0 0.913441 0 0 -0.244224 0 0 103.729
ITEM: POTENTIAL ENERGY
21.391
ITEM: KINETIC ENERGY
0.178937
ITEM: TIMESTEP
45
ITEM: NUMBER OF ATOMS
7
ITEM: BOX BOUNDS ff ff ff
-10 10
-10 10
-10 10
ITEM: ATOMS id mass x y z vx vy vz fx fy fz
7 1 0 0 -0.913249 0 0 0.140317 0 0 -104.086
6 1 0 0 0.913249 0 0 -0.140317 0 0 104.086
1 1 0 0 0 0 0 0 0 0 0
3 1 -0.913249 0 0 0.140317 0 0 -104.086 0 0
5 1 0 -0.913249 0 0 0.140317 0 0 -104.086 0
2 1 0.913249 0 0 -0.140317 0 0 104.086 0 0
4 1 0 0.913249 0 0 -0.140317 0 0 104.086 0
ITEM: POTENTIAL ENERGY
21.5109
ITEM: KINETIC ENERGY
0.0590664
ITEM: TIMESTEP
46
ITEM: NUMBER OF ATOMS
7
ITEM: BOX BOUNDS ff ff ff
-10 10
-10 10
-10 10
ITEM: ATOMS id mass x y z vx vy vz fx fy fz
5 1 0 -0.913161 0 0 0.0361489 0 0 -104.25 0
7 1 0 0 -0.913161 0 0 0.0361489 0 0 -104.25
3 1 -0.913161 0 0 0.0361489 0 0 -104.25 0 0
6 1 0 0 0.913161 0 0 -0.0361489 0 0 104.25
1 1 0 0 0 0 0 0 0 0 0
2 1 0.913161 0 0 -0.0361489 0 0 104.25 0 0
4 1 0 0.913161 0 0 -0.0361489 0 0 104.25 0
ITEM: POTENTIAL ENERGY
21.5661
ITEM: KINETIC ENERGY
0.00392022
ITEM: TIMESTEP
47
ITEM: NUMBER OF ATOMS
7
ITEM: BOX BOUNDS ff ff ff
-10 10
-10 10
-10 10
ITEM: ATOMS id mass x y z vx vy vz fx fy fz
7 1 0 0 -0.913177 0 0 -0.0680862 0 0 -104.22
1 1 0 0 0 0 0 0 0 0 0
5 1 0 -0.913177 0 0 -0.0680862 0 0 -104.22 0
4 1 0 0.913177 0 0 0.0680862 0 0 104.22 0
3 1 -0.913177 0 0 -0.0680862 0 0 -104.22 0 0
2 1 0.913177 0 0 0.0680862 0 0 104.22 0 0
6 1 0 0 0.913177 0 0 0.0680862 0 0 104.22
ITEM: POTENTIAL ENERGY
21.5561
ITEM: KINETIC ENERGY
0.0139072
ITEM: TIMESTEP
48
ITEM: NUMBER OF ATOMS
7
ITEM: BOX BOUNDS ff ff ff
-10 10
-10 10
-10 10
ITEM: ATOMS id mass x y z vx vy vz fx fy fz
7 1 0 0 -0.913297 0 0 -0.172195 0 0 -103.997
2 1 0.913297 0 0 0.172195 0 0 103.997 0 0
5 1 0 -0.913297 0 0 -0.172195 0 0 -103.997 0
4 1 0 0.913297 0 0 0.172195 0 0 103.997 0
1 1 0 0 0 0 0 0 0 0 0
3 1 -0.913297 0 0 -0.172195 0 0 -103.997 0 0
6 1 0 0 0.913297 0 0 0.172195 0 0 103.997
ITEM: POTENTIAL ENERGY
21.481
ITEM: KINETIC ENERGY
0.0889531
ITEM: TIMESTEP
49
ITEM: NUMBER OF ATOMS
7
ITEM: BOX BOUNDS ff ff ff
-10 10
-10 10
-10 10
ITEM: ATOMS id mass x y z vx vy vz fx fy fz
7 1 0 0 -0.913521 0 0 -0.275984 0 0 -103.582
2 1 0.913521 0 0 0.275984 0 0 103.582 0 0
6 1 0 0 0.913521 0 0 0.275984 0 0 103.582
5 1 0 -0.913521 0 0 -0.275984 0 0 -103.582 0
4 1 0 0.913521 0 0 0.275984 0 0 103.582 0
1 1 0 0 0 0 0 0 0 0 0
3 1 -0.913521 0 0 -0.275984 0 0 -103.582 0 0
ITEM: POTENTIAL ENERGY
21.3414
ITEM: KINETIC ENERGY
0.228502
ITEM: TIMESTEP
50
ITEM: NUMBER OF ATOMS
7
ITEM: BOX BOUNDS ff ff ff
-10 10
-10 10
-10 10
ITEM: ATOMS id mass x y z vx vy vz fx fy fz
7 1 0 0 -0.913849 0 0 -0.379264 0 0 -102.978
1 1 0 0 0 0 0 0 0 0 0
6 1 0 0 0.913849 0 0 0.379264 0 0 102.978
5 1 0 -0.913849 0 0 -0.379264 0 0 -102.978 0
4 1 0 0.913849 0 0 0.379264 0 0 102.978 0
3 1 -0.913849 0 0 -0.379264 0 0 -102.978 0 0
2 1 0.913849 0 0 0.379264 0 0 102.978 0 0
ITEM: POTENTIAL ENERGY
21.1383
ITEM: KINETIC ENERGY
0.431525
ITEM: TIMESTEP
51
ITEM: NUMBER OF ATOMS
7
ITEM: BOX BOUNDS ff ff ff
-10 10
-10 10
-10 10
ITEM: ATOMS id mass x y z vx vy vz fx fy fz
7 1 0 0 -0.91428 0 0 -0.481848 0 0 -102.19
5 1 0 -0.91428 0 0 -0.481848 0 0 -102.19 0
3 1 -0.91428 0 0 -0.481848 0 0 -102.19 0 0
4 1 0 0.91428 0 0 0.481848 0 0 102.19 0
1 1 0 0 0 0 0 0 0 0 0
2 1 0.91428 0 0 0.481848 0 0 102.19 0 0
6 1 0 0 0.91428 0 0 0.481848 0 0 102.19
ITEM: POTENTIAL ENERGY
20.8731
ITEM: KINETIC ENERGY
0.696533
ITEM: TIMESTEP
52
ITEM: NUMBER OF ATOMS
7
ITEM: BOX BOUNDS ff ff ff
-10 10
-10 10
-10 10
ITEM: ATOMS id mass x y z vx vy vz fx fy fz
7 1 0 0 -0.914813 0 0 -0.583554 0 0 -101.222
4 1 0 0.914813 0 0 0.583554 0 0 101.222 0
5 1 0 -0.914813 0 0 -0.583554 0 0 -101.222 0
1 1 0 0 0 0 0 0 0 0 0
3 1 -0.914813 0 0 -0.583554 0 0 -101.222 0 0
6 1 0 0 0.914813 0 0 0.583554 0 0 101.222
2 1 0.914813 0 0 0.583554 0 0 101.222 0 0
ITEM: POTENTIAL ENERGY
20.5479
ITEM: KINETIC ENERGY
1.02161
ITEM: TIMESTEP
53
ITEM: NUMBER OF ATOMS
7
ITEM: BOX BOUNDS ff ff ff
-10 10
-10 10
-10 10
ITEM: ATOMS id mass x y z vx vy vz fx fy fz
7 1 0 0 -0.915447 0 0 -0.684206 0 0 -100.082
2 1 0.915447 0 0 0.684206 0 0 100.082 0 0
5 1 0 -0.915447 0 0 -0.684206 0 0 -100.082 0
4 1 0 0.915447 0 0 0.684206 0 0 100.082 0
3 1 -0.915447 0 0 -0.684206 0 0 -100.082 0 0
6 1 0 0 0.915447 0 0 0.684206 0 0 100.082
1 1 0 0 0 0 0 0 0 0 0
ITEM: POTENTIAL ENERGY
20.165
ITEM: KINETIC ENERGY
1.40441
ITEM: TIMESTEP
54
ITEM: NUMBER OF ATOMS
7
ITEM: BOX BOUNDS ff ff ff
-10 10
-10 10
-10 10
ITEM: ATOMS id mass x y z vx vy vz fx fy fz
7 1 0 0 -0.916181 0 0 -0.783635 0 0 -98.7766
2 1 0.916181 0 0 0.783635 0 0 98.7766 0 0
5 1 0 -0.916181 0 0 -0.783635 0 0 -98.7766 0
4 1 0 0.916181 0 0 0.783635 0 0 98.7766 0
3 1 -0.916181 0 0 -0.783635 0 0 -98.7766 0 0
6 1 0 0 0.916181 0 0 0.783635 0 0 98.7766
1 1 0 0 0 0 0 0 0 0 0
ITEM: POTENTIAL ENERGY
19.7269
ITEM: KINETIC ENERGY
1.84225
ITEM: TIMESTEP
55
ITEM: NUMBER OF ATOMS
7
ITEM: BOX BOUNDS ff ff ff
-10 10
-10 10
-10 10
ITEM: ATOMS id mass x y z vx vy vz fx fy fz
7 1 0 0 -0.917014 0 0 -0.881681 0 0 -97.3154
2 1 0.917014 0 0 0.881681 0 0 97.3154 0 0
5 1 0 -0.917014 0 0 -0.881681 0 0 -97.3154 0
6 1 0 0 0.917014 0 0 0.881681 0 0 97.3154
3 1 -0.917014 0 0 -0.881681 0 0 -97.3154 0 0
4 1 0 0.917014 0 0 0.881681 0 0 97.3154 0
1 1 0 0 0 0 0 0 0 0 0
ITEM: POTENTIAL ENERGY
19.2369
ITEM: KINETIC ENERGY
2.33208
ITEM: TIMESTEP
56
ITEM: NUMBER OF ATOMS
7
ITEM: BOX BOUNDS ff ff ff
-10 10
-10 10
-10 10
ITEM: ATOMS id mass x y z vx vy vz fx fy fz
7 1 0 0 -0.917944 0 0 -0.978192 0 0 -95.7075
1 1 0 0 0 0 0 0 0 0 0
6 1 0 0 0.917944 0 0 0.978192 0 0 95.7075
5 1 0 -0.917944 0 0 -0.978192 0 0 -95.7075 0
4 1 0 0.917944 0 0 0.978192 0 0 95.7075 0
3 1 -0.917944 0 0 -0.978192 0 0 -95.7075 0 0
2 1 0.917944 0 0 0.978192 0 0 95.7075 0 0
ITEM: POTENTIAL ENERGY
18.6982
ITEM: KINETIC ENERGY
2.87058
ITEM: TIMESTEP
57
ITEM: NUMBER OF ATOMS
7
ITEM: BOX BOUNDS ff ff ff
-10 10
-10 10
-10 10
ITEM: ATOMS id mass x y z vx vy vz fx fy fz
7 1 0 0 -0.91897 0 0 -1.07303 0 0 -93.9633
1 1 0 0 0 0 0 0 0 0 0
5 1 0 -0.91897 0 0 -1.07303 0 0 -93.9633 0
6 1 0 0 0.91897 0 0 1.07303 0 0 93.9633
3 1 -0.91897 0 0 -1.07303 0 0 -93.9633 0 0
2 1 0.91897 0 0 1.07303 0 0 93.9633 0 0
4 1 0 0.91897 0 0 1.07303 0 0 93.9633 0
ITEM: POTENTIAL ENERGY
18.1144
ITEM: KINETIC ENERGY
3.45417
ITEM: TIMESTEP
58
ITEM: NUMBER OF ATOMS
7
ITEM: BOX BOUNDS ff ff ff
-10 10
-10 10
-10 10
ITEM: ATOMS id mass x y z vx vy vz fx fy fz
7 1 0 0 -0.92009 0 0 -1.16606 0 0 -92.0934
3 1 -0.92009 0 0 -1.16606 0 0 -92.0934 0 0
6 1 0 0 0.92009 0 0 1.16606 0 0 92.0934
5 1 0 -0.92009 0 0 -1.16606 0 0 -92.0934 0
1 1 0 0 0 0 0 0 0 0 0
4 1 0 0.92009 0 0 1.16606 0 0 92.0934 0
2 1 0.92009 0 0 1.16606 0 0 92.0934 0 0
ITEM: POTENTIAL ENERGY
17.4892
ITEM: KINETIC ENERGY
4.07906
ITEM: TIMESTEP
59
ITEM: NUMBER OF ATOMS
7
ITEM: BOX BOUNDS ff ff ff
-10 10
-10 10
-10 10
ITEM: ATOMS id mass x y z vx vy vz fx fy fz
7 1 0 0 -0.921303 0 0 -1.25716 0 0 -90.1091
2 1 0.921303 0 0 1.25716 0 0 90.1091 0 0
5 1 0 -0.921303 0 0 -1.25716 0 0 -90.1091 0
4 1 0 0.921303 0 0 1.25716 0 0 90.1091 0
3 1 -0.921303 0 0 -1.25716 0 0 -90.1091 0 0
1 1 0 0 0 0 0 0 0 0 0
6 1 0 0 0.921303 0 0 1.25716 0 0 90.1091
ITEM: POTENTIAL ENERGY
16.8267
ITEM: KINETIC ENERGY
4.74133
ITEM: TIMESTEP
60
ITEM: NUMBER OF ATOMS
7
ITEM: BOX BOUNDS ff ff ff
-10 10
-10 10
-10 10
ITEM: ATOMS id mass x y z vx vy vz fx fy fz
7 1 0 0 -0.922605 0 0 -1.34622 0 0 -88.0219
2 1 0.922605 0 0 1.34622 0 0 88.0219 0 0
5 1 0 -0.922605 0 0 -1.34622 0 0 -88.0219 0
4 1 0 0.922605 0 0 1.34622 0 0 88.0219 0
1 1 0 0 0 0 0 0 0 0 0
3 1 -0.922605 0 0 -1.34622 0 0 -88.0219 0 0
6 1 0 0 0.922605 0 0 1.34622 0 0 88.0219
ITEM: POTENTIAL ENERGY
16.1308
ITEM: KINETIC ENERGY
5.43695
ITEM: TIMESTEP
61
ITEM: NUMBER OF ATOMS
7
ITEM: BOX BOUNDS ff ff ff
-10 10
-10 10
-10 10
ITEM: ATOMS id mass x y z vx vy vz fx fy fz
7 1 0 0 -0.923995 0 0 -1.43316 0 0 -85.8436
2 1 0.923995 0 0 1.43316 0 0 85.8436 0 0
5 1 0 -0.923995 0 0 -1.43316 0 0 -85.8436 0
3 1 -0.923995 0 0 -1.43316 0 0 -85.8436 0 0
6 1 0 0 0.923995 0 0 1.43316 0 0 85.8436
1 1 0 0 0 0 0 0 0 0 0
4 1 0 0.923995 0 0 1.43316 0 0 85.8436 0
ITEM: POTENTIAL ENERGY
15.4057
ITEM: KINETIC ENERGY
6.16181
ITEM: TIMESTEP
62
ITEM: NUMBER OF ATOMS
7
ITEM: BOX BOUNDS ff ff ff
-10 10
-10 10
-10 10
ITEM: ATOMS id mass x y z vx vy vz fx fy fz
5 1 0 -0.925471 0 0 -1.51787 0 0 -83.5858 0
6 1 0 0 0.925471 0 0 1.51787 0 0 83.5858
7 1 0 0 -0.925471 0 0 -1.51787 0 0 -83.5858
4 1 0 0.925471 0 0 1.51787 0 0 83.5858 0
3 1 -0.925471 0 0 -1.51787 0 0 -83.5858 0 0
1 1 0 0 0 0 0 0 0 0 0
2 1 0.925471 0 0 1.51787 0 0 83.5858 0 0
ITEM: POTENTIAL ENERGY
14.6555
ITEM: KINETIC ENERGY
6.91179
ITEM: TIMESTEP
63
ITEM: NUMBER OF ATOMS
7
ITEM: BOX BOUNDS ff ff ff
-10 10
-10 10
-10 10
ITEM: ATOMS id mass x y z vx vy vz fx fy fz
7 1 0 0 -0.927031 0 0 -1.60029 0 0 -81.2602
1 1 0 0 0 0 0 0 0 0 0
5 1 0 -0.927031 0 0 -1.60029 0 0 -81.2602 0
6 1 0 0 0.927031 0 0 1.60029 0 0 81.2602
3 1 -0.927031 0 0 -1.60029 0 0 -81.2602 0 0
2 1 0.927031 0 0 1.60029 0 0 81.2602 0 0
4 1 0 0.927031 0 0 1.60029 0 0 81.2602 0
ITEM: POTENTIAL ENERGY
13.8842
ITEM: KINETIC ENERGY
7.68282