ITEM: TIMESTEP
0
ITEM: NUMBER OF ATOMS
13
ITEM: BOX BOUNDS ff ff ff
-15.874 15.874
-15.874 15.874
-15.874 15.874
ITEM: ATOMS id mass x y z vx vy vz fx fy fz
1 1 -1.5874 -1.5874 -1.5874 1.4396 2.43773 -0.306202 1.30258 1.30258 1.30258
2 1 -0.793701 -0.793701 -1.5874 0.733741 -1.89935 -0.227406 -0.0898709 -0.0898709 1.36605
3 1 -0.793701 -1.5874 -0.793701 0.655244 0.170018 2.27588 -0.0898709 1.36605 -0.0898709
4 1 -1.5874 -0.793701 -0.793701 -0.281668 -0.464651 -0.651007 1.36605 -0.0898709 -0.0898709
5 1 0 -1.5874 -1.5874 -1.99132 1.0414 1.395 -1.30258 1.24444 1.24444
6 1 0 -0.793701 -0.793701 -0.216176 -0.724528 -1.01335 -1.54579 4.4964e-15 4.46865e-15
7 1 -1.5874 0 -1.5874 -1.25024 0.0974668 -0.489309 1.24444 -1.30258 1.24444
8 1 -0.793701 0 -0.793701 0.356201 -0.22975 0.0839335 4.47614e-15 -1.54579 4.44728e-15
9 1 0 0 -1.5874 -0.00472815 0.422292 0.597379 -1.30258 -1.30258 0.475756
10 1 -1.5874 -1.5874 0 -0.421741 -0.124629 0.285374 1.24444 1.24444 -1.30258
11 1 -0.793701 -0.793701 0 0.699566 0.185257 0.794649 4.47614e-15 4.46226e-15 -1.54579
12 1 0 -1.5874 0 0.0104615 -0.0122306 -1.62641 -1.30258 0.475756 -1.30258
13 1 -1.5874 0 0 0.27106 -0.899028 -1.11853 0.475756 -1.30258 -1.30258
