ITEM: TIMESTEP
0
ITEM: NUMBER OF ATOMS
55
ITEM: BOX BOUNDS ff ff ff
-15.874 15.874
-15.874 15.874
-15.874 15.874
ITEM: ATOMS id mass x y z vx vy vz fx fy fz
2 1 -2.3811 -2.3811 -3.1748 1.26507 -2.35141 -0.358482 1.30258 1.30258 2.02155
3 1 -2.3811 -3.1748 -2.3811 1.01108 0.0767563 2.51233 1.30258 2.02155 1.30258
4 1 -3.1748 -2.3811 -2.3811 -0.230933 -0.856927 -1.25076 2.02155 1.30258 1.30258
5 1 -1.5874 -3.1748 -3.1748 -1.22861 0.934786 2.07387 3.46945e-17 1.7202 1.7202
6 1 -0.793701 -2.3811 -3.1748 -0.131253 -0.481324 -0.667226 -1.30258 1.30258 2.02155
7 1 -0.793701 -3.1748 -2.3811 -1.05409 -0.621126 -1.41694 -1.30258 2.02155 1.30258
8 1 -1.5874 -2.3811 -2.3811 0.145472 -0.319125 -0.381441 1.38778e-16 1.89994 1.89994
10 1 0 -2.3811 -2.3811 -0.526805 -0.0888878 0.209382 -2.02155 1.30258 1.30258
11 1 -3.1748 -1.5874 -3.1748 0.363706 0.510102 0.707577 1.7202 -4.85723e-17 1.7202
12 1 -2.3811 -0.793701 -3.1748 -0.0769013 0.594877 -0.872328 1.30258 -1.30258 2.02155
13 1 -2.3811 -1.5874 -2.3811 -0.380601 -0.914679 -2.01196 1.89994 1.11022e-16 1.89994
14 1 -3.1748 -0.793701 -2.3811 1.65435 0.705171 0.56312 2.02155 -1.30258 1.30258
15 1 -1.5874 -1.5874 -3.1748 0.494911 0.863591 -0.17022 9.02056e-17 6.245e-17 2.4973
16 1 -0.793701 -0.793701 -3.1748 -0.771296 -0.733117 0.211664 -1.30258 -1.30258 2.02155
17 1 -0.793701 -1.5874 -2.3811 0.618281 0.457465 0.430389 -1.89994 2.22045e-16 1.89994
18 1 -1.5874 -0.793701 -2.3811 0.536356 -0.870567 1.9049 8.32667e-17 -1.89994 1.89994
19 1 0 -1.5874 -3.1748 0.925162 1.05235 0.582642 -1.7202 6.93889e-18 1.7202
20 1 0 -0.793701 -2.3811 -0.364366 -0.857705 -1.34735 -2.02155 -1.30258 1.30258
22 1 -2.3811 0 -2.3811 -0.359346 1.18556 -0.632324 1.30258 -2.02155 1.30258
23 1 -1.5874 0 -3.1748 -0.998839 -0.492201 0.261473 -2.77556e-17 -1.7202 1.7202
24 1 -0.793701 0 -2.3811 1.54521 -0.782839 0.463448 -1.30258 -2.02155 1.30258
26 1 -3.1748 -3.1748 -1.5874 -0.108872 -1.28241 -1.26735 1.7202 1.7202 -4.16334e-17
27 1 -2.3811 -2.3811 -1.5874 0.705906 -0.798883 1.54497 1.89994 1.89994 5.55112e-17
28 1 -2.3811 -3.1748 -0.793701 -1.89345 -0.650682 -1.76857 1.30258 2.02155 -1.30258
29 1 -3.1748 -2.3811 -0.793701 -0.0591322 -0.685342 0.504146 2.02155 1.30258 -1.30258
30 1 -1.5874 -3.1748 -1.5874 -0.968507 -0.318686 -1.03773 9.71445e-17 2.4973 1.8735e-16
31 1 -0.793701 -2.3811 -1.5874 1.35894 2.33253 1.4879 -1.89994 1.89994 0
32 1 -0.793701 -3.1748 -0.793701 -0.496862 -1.67392 0.827887 -1.30258 2.02155 -1.30258
33 1 -1.5874 -2.3811 -0.793701 -0.311785 0.246313 0.094401 1.94289e-16 1.89994 -1.89994
34 1 0 -3.1748 -1.5874 -0.0663319 1.47649 -1.50645 -1.7202 1.7202 -3.46945e-17
35 1 0 -2.3811 -0.793701 -0.640841 0.596755 0.397603 -2.02155 1.30258 -1.30258
36 1 -3.1748 -1.5874 -1.5874 -0.639309 -0.72015 0.333873 2.4973 1.249e-16 1.59595e-16
37 1 -2.3811 -0.793701 -1.5874 -0.446696 1.67115 -0.213533 1.89994 -1.89994 2.22045e-16
38 1 -2.3811 -1.5874 -0.793701 -1.18752 -1.91095 -1.29454 1.89994 1.38778e-16 -1.89994
39 1 -3.1748 -0.793701 -0.793701 1.17255 0.900213 1.26946 2.02155 -1.30258 -1.30258
40 1 -1.5874 -1.5874 -1.5874 -2.1526 0.269386 -0.773709 9.02056e-17 -1.04083e-16 -1.31839e-15
41 1 -0.793701 -0.793701 -1.5874 0.0549844 -0.988605 0.205701 -1.89994 -1.89994 -5.55112e-17
42 1 -0.793701 -1.5874 -0.793701 -0.0551783 -0.041867 0.714866 -1.89994 1.11022e-16 -1.89994
43 1 -1.5874 -0.793701 -0.793701 -0.54315 -1.18543 -0.096713 1.11022e-16 -1.89994 -1.89994
44 1 0 -1.5874 -1.5874 -0.177578 1.14543 -0.0708921 -2.4973 1.11022e-16 1.11022e-16
45 1 0 -0.793701 -0.793701 0.658488 0.312809 -0.96347 -2.02155 -1.30258 -1.30258
46 1 -3.1748 0 -1.5874 0.572067 -1.10435 1.62845 1.7202 -1.7202 1.38778e-17
47 1 -2.3811 0 -0.793701 -0.608501 1.20165 0.245194 1.30258 -2.02155 -1.30258
48 1 -1.5874 0 -1.5874 0.68785 1.27376 -1.13943 0 -2.4973 -1.11022e-16
49 1 -0.793701 0 -0.793701 -0.226781 1.2299 -0.936753 -1.30258 -2.02155 -1.30258
50 1 0 0 -1.5874 -1.04313 1.41821 -0.126475 -1.7202 -1.7202 1.38778e-17
52 1 -2.3811 -2.3811 0 0.155314 -0.382148 -0.630671 1.30258 1.30258 -2.02155
53 1 -1.5874 -3.1748 0 -0.648836 1.69174 -0.240724 0 1.7202 -1.7202
54 1 -0.793701 -2.3811 0 0.246851 -0.230808 1.19868 -1.30258 1.30258 -2.02155
9 1 -2.3811 -0.793701 0 0.0820814 0.0660782 0.649353 1.30258 -1.30258 -2.02155
55 1 -3.1748 -1.5874 0 1.87466 -0.233752 -1.9215 1.7202 2.77556e-17 -1.7202
25 1 -1.5874 -1.5874 0 1.25869 -1.03164 0.790726 0 -1.11022e-16 -2.4973
51 1 -0.793701 -0.793701 0 -0.169831 -0.0932302 0.227984 -1.30258 -1.30258 -2.02155
21 1 0 -1.5874 0 -0.912198 -1.09571 1.3465 -1.7202 -6.93889e-18 -1.7202
1 1 -1.5874 0 0 2.09216 1.58541 -0.290943 -2.77556e-17 -1.7202 -1.7202
