ITEM: TIMESTEP
0
ITEM: NUMBER OF ATOMS
7
ITEM: BOX BOUNDS pp pp pp
-10 10
-10 10
-10 10
ITEM: ATOMS id mass x y z vx vy vz fx fy fz
1 1 5 5 5 0 0 0 0 0 0
3 1 4 5 5 5 0 0 -19.3184 0 0
5 1 5 4 5 0 5 0 0 -19.3184 0
7 1 5 5 4 0 0 5 0 0 -19.3184
2 1 6 5 5 -5 0 0 19.3184 0 0
4 1 5 6 5 0 -5 0 0 19.3184 0
6 1 5 5 6 0 0 -5 0 0 19.3184
