ITEM: TIMESTEP
0
ITEM: NUMBER OF ATOMS
32000
ITEM: BOX BOUNDS pp pp pp
0 72.3
0 72.3
0 72.3
ITEM: ATOMS id mass x y z vx vy vz fx fy fz
1 6586.493070 0.90375 0.90375 0.90375 -0.00340007 -0.00510583 0.00406428 0 0 0
2 6586.493070 0.90375 2.71125 2.71125 0.000786492 0.000904928 0.00300848 0 0 0
3 6586.493070 2.71125 0.90375 2.71125 -0.000407224 0.00052184 0.00581458 0 0 0
4 6586.493070 2.71125 2.71125 0.90375 -0.00366 0.00205026 0.00239748 0 0 0
5 6586.493070 0.90375 0.90375 4.51875 0.00164475 -0.00509122 0.00304613 0 0 0
6 6586.493070 2.71125 2.71125 4.51875 0.00129599 -0.00229136 0.00255046 0 0 0
7 6586.493070 0.90375 4.51875 0.90375 0.00436553 0.000972174 0.00506133 0 0 0
8 6586.493070 2.71125 4.51875 2.71125 -0.000697806 -0.00372326 0.00163983 0 0 0
9 6586.493070 0.90375 4.51875 4.51875 -0.00453439 0.00332217 0.000772455 0 0 0
10 6586.493070 4.51875 0.90375 0.90375 0.00321052 -0.00204671 -0.00273551 0 0 0
11 6586.493070 4.51875 2.71125 2.71125 -0.00016846 -0.000438665 0.00149457 0 0 0
12 6586.493070 4.51875 0.90375 4.51875 0.000602063 -1.50747e-05 -0.00427807 0 0 0
13 6586.493070 4.51875 4.51875 0.90375 0.00285417 -0.00568739 -3.73623e-05 0 0 0
14 6586.493070 4.51875 4.51875 4.51875 -0.00303196 0.00330424 0.000217854 0 0 0
15 6586.493070 6.32625 0.90375 2.71125 -0.00202816 -0.00150757 0.00169517 0 0 0
16 6586.493070 6.32625 2.71125 0.90375 -0.0022221 1.6734e-05 -0.00600342 0 0 0
17 6586.493070 6.32625 2.71125 4.51875 -0.00142315 -0.00203993 -0.00155579 0 0 0
18 6586.493070 6.32625 4.51875 2.71125 0.000259271 -0.00555241 0.000281229 0 0 0
19 6586.493070 8.13375 0.90375 0.90375 0.00248766 0.000144145 -0.00650528 0 0 0
20 6586.493070 8.13375 2.71125 2.71125 0.00174355 -0.00373482 -0.00329328 0 0 0
21 6586.493070 9.94125 0.90375 2.71125 -0.00247333 -0.000476464 0.00154385 0 0 0
22 6586.493070 9.94125 2.71125 0.90375 -0.00291 -0.000256091 -0.000435477 0 0 0
23 6586.493070 8.13375 0.90375 4.51875 0.00392741 -0.00235099 0.00330641 0 0 0
24 6586.493070 9.94125 2.71125 4.51875 0.00177164 -0.00165497 -0.00647981 0 0 0
25 6586.493070 8.13375 4.51875 0.90375 0.00391976 0.00299304 0.000235648 0 0 0
26 6586.493070 9.94125 4.51875 2.71125 -0.00182753 0.00575406 -0.00165944 0 0 0
27 6586.493070 8.13375 4.51875 4.51875 -0.00475657 -0.00101613 -8.2082e-05 0 0 0
28 6586.493070 11.7488 0.90375 0.90375 0.0033943 -0.0025067 -0.00045802 0 0 0
29 6586.493070 11.7488 2.71125 2.71125 0.000657924 -0.0016609 0.00536075 0 0 0
30 6586.493070 11.7488 0.90375 4.51875 0.00018188 -0.00519079 0.000971202 0 0 0
31 6586.493070 11.7488 4.51875 0.90375 0.00292835 -0.000335102 2.33749e-05 0 0 0
32 6586.493070 11.7488 4.51875 4.51875 -0.000182987 -0.00140758 0.000965813 0 0 0
33 6586.493070 13.5563 0.90375 2.71125 -0.00286035 -0.00403711 -0.000387379 0 0 0
34 6586.493070 13.5563 2.71125 0.90375 -0.000600765 -0.00470527 0.000651692 0 0 0
35 6586.493070 13.5563 2.71125 4.51875 0.00309924 -0.000333132 0.00338991 0 0 0
36 6586.493070 13.5563 4.51875 2.71125 -0.000672599 0.00358569 -0.00311053 0 0 0
37 6586.493070 15.3638 0.90375 0.90375 0.00517373 0.00164293 0.00187269 0 0 0
38 6586.493070 15.3638 2.71125 2.71125 0.00126636 0.0044605 -0.00378437 0 0 0
39 6586.493070 17.1713 0.90375 2.71125 -0.000985496 -0.00383983 -0.00454276 0 0 0
40 6586.493070 17.1713 2.71125 0.90375 -0.00102283 0.00106836 -0.00203921 0 0 0
41 6586.493070 15.3638 0.90375 4.51875 0.00624706 -0.0047174 -0.000922123 0 0 0
42 6586.493070 17.1713 2.71125 4.51875 -0.00457311 -0.00563568 0.00111659 0 0 0
43 6586.493070 15.3638 4.51875 0.90375 0.00334163 -0.00260582 -0.00633685 0 0 0
44 6586.493070 17.1713 4.51875 2.71125 0.000594148 0.0016115 -0.00244815 0 0 0
45 6586.493070 15.3638 4.51875 4.51875 -0.00142519 -0.00472201 -0.00195167 0 0 0
46 6586.493070 18.9788 0.90375 0.90375 0.00239053 -0.000805823 -0.00513362 0 0 0
47 6586.493070 18.9788 2.71125 2.71125 0.00171633 -0.00203614 0.00450007 0 0 0
48 6586.493070 20.7863 0.90375 2.71125 -0.000908419 -0.00386608 -0.00539993 0 0 0
49 6586.493070 20.7863 2.71125 0.90375 1.12277e-05 0.000470773 -0.000494854 0 0 0
50 6586.493070 18.9788 0.90375 4.51875 0.00182749 -0.00115037 -0.00176596 0 0 0
51 6586.493070 20.7863 2.71125 4.51875 0.00296609 -0.00479054 -0.00154999 0 0 0
52 6586.493070 18.9788 4.51875 0.90375 0.00336495 0.00153833 -0.000974595 0 0 0
53 6586.493070 20.7863 4.51875 2.71125 -0.00281379 -0.00292255 0.00146032 0 0 0
54 6586.493070 18.9788 4.51875 4.51875 -0.000107785 -0.00435964 0.00690447 0 0 0
55 6586.493070 22.5938 0.90375 0.90375 0.00229724 3.81749e-05 0.00106393 0 0 0
56 6586.493070 22.5938 2.71125 2.71125 0.000411076 -0.00284732 0.000838512 0 0 0
57 6586.493070 22.5938 0.90375 4.51875 -0.00149126 0.0017454 -0.00080838 0 0 0
58 6586.493070 22.5938 4.51875 0.90375 0.000112854 -0.00172266 -0.000970926 0 0 0
59 6586.493070 22.5938 4.51875 4.51875 -0.00144864 0.00168058 -0.00391731 0 0 0
60 6586.493070 24.4013 0.90375 2.71125 -0.000654683 0.00110732 -0.00281122 0 0 0
61 6586.493070 24.4013 2.71125 0.90375 0.00107488 0.00513935 -0.00253799 0 0 0
62 6586.493070 24.4013 2.71125 4.51875 -0.00508719 0.000994158 -0.00108639 0 0 0
63 6586.493070 24.4013 4.51875 2.71125 -0.000930108 0.000516395 0.00531318 0 0 0
64 6586.493070 26.2088 0.90375 0.90375 -0.00207731 0.00243982 -0.000438934 0 0 0
65 6586.493070 26.2088 2.71125 2.71125 -0.00285445 0.00568727 -0.00260386 0 0 0
66 6586.493070 28.0163 0.90375 2.71125 0.00381719 0.00294798 -0.000926667 0 0 0
67 6586.493070 28.0163 2.71125 0.90375 -0.000731208 -0.00286433 0.00194989 0 0 0
68 6586.493070 26.2088 0.90375 4.51875 -0.00244179 0.000387775 0.000846688 0 0 0
69 6586.493070 28.0163 2.71125 4.51875 -0.00252238 -0.00244586 0.0027141 0 0 0
70 6586.493070 26.2088 4.51875 0.90375 -0.00330399 0.00732116 -0.00133443 0 0 0
71 6586.493070 28.0163 4.51875 2.71125 0.00501612 -0.00135608 -0.00111331 0 0 0
72 6586.493070 26.2088 4.51875 4.51875 -0.00214876 0.000713478 -0.000151764 0 0 0
73 6586.493070 29.8238 0.90375 0.90375 -0.00168605 0.00230809 0.00391565 0 0 0
74 6586.493070 29.8238 2.71125 2.71125 -0.000884684 -0.000365726 0.00227362 0 0 0
75 6586.493070 29.8238 0.90375 4.51875 3.74817e-05 -0.00105671 -0.0016278 0 0 0
76 6586.493070 29.8238 4.51875 0.90375 -0.00255064 -0.00583958 0.00224326 0 0 0
77 6586.493070 29.8238 4.51875 4.51875 0.00251196 0.000673608 0.00239835 0 0 0
78 6586.493070 31.6313 0.90375 2.71125 -0.000550744 -0.00870515 -0.00397063 0 0 0
79 6586.493070 31.6313 2.71125 0.90375 0.000271278 -0.000662965 0.00141929 0 0 0
80 6586.493070 31.6313 2.71125 4.51875 -0.000911623 -0.000871364 0.00227873 0 0 0
81 6586.493070 31.6313 4.51875 2.71125 2.36412e-05 -0.000948562 -0.000627612 0 0 0
82 6586.493070 33.4387 0.90375 0.90375 0.00432858 -0.00257734 0.00608458 0 0 0
83 6586.493070 33.4387 2.71125 2.71125 -0.00134103 -0.00179099 -0.00202756 0 0 0
84 6586.493070 35.2463 0.90375 2.71125 0.00381451 -0.0012769 0.00117507 0 0 0
85 6586.493070 35.2463 2.71125 0.90375 0.00384018 -0.00102363 0.00121137 0 0 0
86 6586.493070 33.4387 0.90375 4.51875 0.00118863 -0.00232186 -0.0038683 0 0 0
87 6586.493070 35.2463 2.71125 4.51875 -0.00291625 -0.00231441 0.00310312 0 0 0
88 6586.493070 33.4387 4.51875 0.90375 0.00154395 0.00225801 0.00259983 0 0 0
89 6586.493070 35.2463 4.51875 2.71125 0.00531939 -0.00599219 -0.00161777 0 0 0
90 6586.493070 33.4387 4.51875 4.51875 -0.000444889 0.000152089 0.00260687 0 0 0
91 6586.493070 37.0538 0.90375 0.90375 -0.0052428 -0.00276225 0.00106705 0 0 0
92 6586.493070 37.0538 2.71125 2.71125 0.00135067 -0.00189012 -0.00158483 0 0 0
93 6586.493070 38.8613 0.90375 2.71125 0.00206562 -0.00367234 0.000381139 0 0 0
94 6586.493070 38.8613 2.71125 0.90375 0.00298177 -0.00295174 0.00114813 0 0 0
95 6586.493070 37.0538 0.90375 4.51875 0.00141289 0.00183835 -0.00462958 0 0 0
96 6586.493070 38.8613 2.71125 4.51875 -0.00273976 0.00209798 0.000531876 0 0 0
97 6586.493070 37.0538 4.51875 0.90375 -0.00190648 0.00172057 -0.00270208 0 0 0
98 6586.493070 38.8613 4.51875 2.71125 -0.000610493 0.000391777 0.000970102 0 0 0
99 6586.493070 37.0538 4.51875 4.51875 -0.000546121 -0.000932987 -0.00106744 0 0 0
100 6586.493070 40.6688 0.90375 0.90375 0.0037525 0.000998944 -0.00407086 0 0 0
101 6586.493070 40.6688 2.71125 2.71125 -0.00416055 -0.00068978 -0.0018111 0 0 0
102 6586.493070 40.6688 0.90375 4.51875 -0.000532089 -0.0116646 -0.00413232 0 0 0
103 6586.493070 40.6688 4.51875 0.90375 0.00226246 0.00127125 -0.00228541 0 0 0
104 6586.493070 40.6688 4.51875 4.51875 -0.000606625 -0.00212379 -0.00210208 0 0 0
105 6586.493070 42.4763 0.90375 2.71125 0.000916408 -0.00486127 -0.000252376 0 0 0
106 6586.493070 42.4763 2.71125 0.90375 0.00380198 0.000152638 0.000323582 0 0 0
107 6586.493070 42.4763 2.71125 4.51875 -0.00203874 0.000789551 0.00200629 0 0 0
108 6586.493070 42.4763 4.51875 2.71125 0.00195905 -0.00620747 -0.000152941 0 0 0
109 6586.493070 44.2838 0.90375 0.90375 0.00190646 -0.00297662 -0.0055083 0 0 0
110 6586.493070 44.2838 2.71125 2.71125 -0.00154503 -0.00132908 0.0020752 0 0 0
111 6586.493070 46.0913 0.90375 2.71125 0.000738866 -0.00252507 -0.00404171 0 0 0
112 6586.493070 46.0913 2.71125 0.90375 0.000942489 -0.0026431 -0.00428754 0 0 0
113 6586.493070 44.2838 0.90375 4.51875 0.00354993 -0.00111393 0.000493934 0 0 0
114 6586.493070 46.0913 2.71125 4.51875 -0.00568497 -0.00340404 0.000416283 0 0 0
115 6586.493070 44.2838 4.51875 0.90375 0.000984774 0.00168832 0.000635738 0 0 0
116 6586.493070 46.0913 4.51875 2.71125 0.000355068 -7.64109e-06 -0.00230823 0 0 0
117 6586.493070 44.2838 4.51875 4.51875 6.0349e-05 -5.12289e-05 0.00456693 0 0 0
118 6586.493070 47.8987 0.90375 0.90375 0.00173815 0.000923298 0.00563501 0 0 0
119 6586.493070 47.8987 2.71125 2.71125 -0.000221056 -0.00214317 0.00206826 0 0 0
120 6586.493070 47.8987 0.90375 4.51875 0.00194221 -0.00412814 0.00300889 0 0 0
121 6586.493070 47.8987 4.51875 0.90375 0.00206405 -0.00166005 0.000624497 0 0 0
122 6586.493070 47.8987 4.51875 4.51875 -5.83632e-05 0.000162193 0.0019552 0 0 0
123 6586.493070 49.7063 0.90375 2.71125 0.00338823 -0.00505379 0.000902982 0 0 0
124 6586.493070 49.7063 2.71125 0.90375 0.00182451 0.00211612 0.00326945 0 0 0
125 6586.493070 49.7063 2.71125 4.51875 -0.00257223 0.00441124 -0.000143048 0 0 0
126 6586.493070 49.7063 4.51875 2.71125 0.00140134 0.000820484 0.00503532 0 0 0
127 6586.493070 51.5138 0.90375 0.90375 0.00347047 -0.00070021 -0.0019811 0 0 0
128 6586.493070 51.5138 2.71125 2.71125 -0.000117295 0.00339324 -0.00338091 0 0 0
129 6586.493070 53.3213 0.90375 2.71125 0.00581748 -0.000390703 0.000866093 0 0 0
130 6586.493070 53.3213 2.71125 0.90375 0.000962888 0.00329325 -0.00551992 0 0 0
131 6586.493070 51.5138 0.90375 4.51875 -0.00534172 0.00292505 0.00581128 0 0 0
132 6586.493070 53.3213 2.71125 4.51875 -0.00150279 0.00305794 -0.00145764 0 0 0
133 6586.493070 51.5138 4.51875 0.90375 -0.0011204 -0.000611559 0.00144536 0 0 0
134 6586.493070 53.3213 4.51875 2.71125 0.00355747 -0.00494355 0.00276765 0 0 0
135 6586.493070 51.5138 4.51875 4.51875 -0.00404572 0.00472762 0.0027 0 0 0
136 6586.493070 55.1288 0.90375 0.90375 -0.00290492 0.0037714 -0.00223735 0 0 0
137 6586.493070 55.1288 2.71125 2.71125 0.00440251 -0.00133069 -0.00125941 0 0 0
138 6586.493070 56.9363 0.90375 2.71125 -0.00278406 -0.00696067 0.00152148 0 0 0
139 6586.493070 56.9363 2.71125 0.90375 -5.02739e-05 -0.000838354 0.00145132 0 0 0
140 6586.493070 55.1288 0.90375 4.51875 0.00319998 -0.00249017 -0.00437499 0 0 0
141 6586.493070 56.9363 2.71125 4.51875 0.00458622 0.00300628 -0.000108146 0 0 0
142 6586.493070 55.1288 4.51875 0.90375 0.00388024 -0.00096792 -0.00240374 0 0 0
143 6586.493070 56.9363 4.51875 2.71125 -0.00438436 -0.000797577 -0.00222623 0 0 0
144 6586.493070 55.1288 4.51875 4.51875 -0.000205978 0.000489907 -0.000227573 0 0 0
145 6586.493070 58.7438 0.90375 0.90375 0.00695038 -0.00403833 -0.00741833 0 0 0
146 6586.493070 58.7438 2.71125 2.71125 -0.000224079 -0.00304646 0.00450929 0 0 0
147 6586.493070 58.7438 0.90375 4.51875 0.00111847 -0.00185086 -0.00219573 0 0 0
148 6586.493070 58.7438 4.51875 0.90375 0.000935027 0.000707608 0.000466642 0 0 0
149 6586.493070 58.7438 4.51875 4.51875 -0.00585045 -0.00604388 -0.00289601 0 0 0
150 6586.493070 60.5513 0.90375 2.71125 -0.000145707 -0.00252747 3.83215e-05 0 0 0
151 6586.493070 60.5513 2.71125 0.90375 0.00112348 0.000551154 1.05982e-05 0 0 0
152 6586.493070 60.5513 2.71125 4.51875 -0.000426442 0.00162667 -0.000390671 0 0 0
153 6586.493070 60.5513 4.51875 2.71125 -0.0030669 0.00535121 0.00940735 0 0 0
154 6586.493070 62.3588 0.90375 0.90375 0.00135728 -0.00428731 0.0061526 0 0 0
155 6586.493070 62.3588 2.71125 2.71125 0.00142631 0.000320442 -0.000485426 0 0 0
156 6586.493070 64.1663 0.90375 2.71125 -0.000533187 -0.000852635 0.00229441 0 0 0
157 6586.493070 64.1663 2.71125 0.90375 -0.000700189 0.00252119 -0.00135237 0 0 0
158 6586.493070 62.3588 0.90375 4.51875 0.00187742 0.00104258 -0.00283984 0 0 0
159 6586.493070 64.1663 2.71125 4.51875 -0.000757433 -0.000453546 -0.000720099 0 0 0
160 6586.493070 62.3588 4.51875 0.90375 -0.00090421 0.000265504 0.0020337 0 0 0
161 6586.493070 64.1663 4.51875 2.71125 -0.00164883 -0.00662349 -0.00133723 0 0 0
162 6586.493070 62.3588 4.51875 4.51875 -2.43846e-05 3.14398e-05 -0.000207395 0 0 0
163 6586.493070 65.9738 0.90375 0.90375 -0.00161213 -0.00114761 0.000574479 0 0 0
164 6586.493070 65.9738 2.71125 2.71125 -0.000793665 -0.00172296 -0.0022348 0 0 0
165 6586.493070 65.9738 0.90375 4.51875 -0.00312703 -0.00377522 -0.000874921 0 0 0
166 6586.493070 65.9738 4.51875 0.90375 -0.000116794 -0.00056046 -0.000768625 0 0 0
167 6586.493070 65.9738 4.51875 4.51875 -0.00294928 0.000570709 -0.000852544 0 0 0
168 6586.493070 67.7812 0.90375 2.71125 -0.00603273 0.0017162 0.00294558 0 0 0
169 6586.493070 67.7812 2.71125 0.90375 0.00103149 -0.00183078 0.0013448 0 0 0
170 6586.493070 67.7812 2.71125 4.51875 7.53746e-05 -0.00663715 -0.00090357 0 0 0
171 6586.493070 67.7812 4.51875 2.71125 0.000974024 0.00182063 -0.000834541 0 0 0
172 6586.493070 69.5888 0.90375 0.90375 0.00346484 0.00207741 0.00220359 0 0 0
173 6586.493070 69.5888 2.71125 2.71125 -0.000823042 0.00246805 0.00205785 0 0 0
174 6586.493070 71.3963 0.90375 2.71125 0.00187206 -0.00451959 0.00468898 0 0 0
175 6586.493070 71.3963 2.71125 0.90375 0.00349249 0.00211702 0.00492182 0 0 0
176 6586.493070 69.5888 0.90375 4.51875 -0.0038442 -0.00351104 0.00356101 0 0 0
177 6586.493070 71.3963 2.71125 4.51875 0.00281246 0.00615424 -0.00251547 0 0 0
178 6586.493070 69.5888 4.51875 0.90375 -0.0034376 -0.00317603 -4.1432e-05 0 0 0
179 6586.493070 71.3963 4.51875 2.71125 -0.00238129 -0.00186443 -0.00344074 0 0 0
180 6586.493070 69.5888 4.51875 4.51875 -0.00404321 -0.00204676 -0.000338417 0 0 0
181 6586.493070 0.90375 6.32625 2.71125 -0.00757533 -0.000136744 0.00544519 0 0 0
182 6586.493070 2.71125 6.32625 0.90375 0.00366893 0.00227869 -0.00405056 0 0 0
183 6586.493070 2.71125 6.32625 4.51875 -0.00463725 0.000520865 -0.00282289 0 0 0
184 6586.493070 0.90375 8.13375 0.90375 -0.000692177 -0.00093883 -0.00428086 0 0 0
185 6586.493070 0.90375 9.94125 2.71125 -0.00549123 0.00126239 -0.000230635 0 0 0
186 6586.493070 2.71125 8.13375 2.71125 0.00250608 0.00314129 0.00656727 0 0 0
187 6586.493070 2.71125 9.94125 0.90375 0.00112806 0.00414161 -0.00316378 0 0 0
188 6586.493070 0.90375 8.13375 4.51875 -0.00206295 -0.0013222 0.00276886 0 0 0
189 6586.493070 2.71125 9.94125 4.51875 -0.00259045 -0.000501832 0.007722 0 0 0
190 6586.493070 0.90375 11.7488 0.90375 -0.00153617 -0.00153211 -0.00111826 0 0 0
191 6586.493070 2.71125 11.7488 2.71125 -0.00436503 -0.000668541 0.00228537 0 0 0
192 6586.493070 0.90375 11.7488 4.51875 0.000351779 -0.00152698 -0.00102603 0 0 0
193 6586.493070 4.51875 6.32625 2.71125 0.00195191 -0.00591259 -0.00256694 0 0 0
194 6586.493070 4.51875 8.13375 0.90375 -0.00345696 -0.00294748 0.00389591 0 0 0
195 6586.493070 4.51875 9.94125 2.71125 -0.00214167 -0.000781998 0.000872437 0 0 0
196 6586.493070 4.51875 8.13375 4.51875 0.000108084 0.00280443 -0.00331904 0 0 0
197 6586.493070 4.51875 11.7488 0.90375 0.000299618 0.00221006 0.00261576 0 0 0
198 6586.493070 4.51875 11.7488 4.51875 -0.00465348 -0.000434433 -0.00148147 0 0 0
199 6586.493070 6.32625 6.32625 0.90375 0.00167988 0.00272156 -0.00142296 0 0 0
200 6586.493070 6.32625 6.32625 4.51875 0.00421541 0.00398819 -0.00422019 0 0 0
201 6586.493070 6.32625 8.13375 2.71125 0.00377026 0.00101736 0.00469026 0 0 0
202 6586.493070 6.32625 9.94125 0.90375 0.000395991 0.00190194 5.5034e-05 0 0 0
203 6586.493070 6.32625 9.94125 4.51875 -0.00295573 0.00323397 0.000372818 0 0 0
204 6586.493070 6.32625 11.7488 2.71125 -0.00135395 0.00264491 -0.00104336 0 0 0
205 6586.493070 8.13375 6.32625 2.71125 0.00155461 0.00110225 -0.00182734 0 0 0
206 6586.493070 9.94125 6.32625 0.90375 -0.0019941 -0.00269568 -0.000895578 0 0 0
207 6586.493070 9.94125 6.32625 4.51875 -0.000538807 0.000460206 0.000306068 0 0 0
208 6586.493070 8.13375 8.13375 0.90375 -0.00112055 -4.21364e-05 0.00147385 0 0 0
209 6586.493070 8.13375 9.94125 2.71125 -0.000279427 0.00370521 0.000697385 0 0 0
210 6586.493070 9.94125 8.13375 2.71125 -0.00109277 0.00105723 -0.00148384 0 0 0
211 6586.493070 9.94125 9.94125 0.90375 -0.00260677 -0.000233098 0.00166537 0 0 0
212 6586.493070 8.13375 8.13375 4.51875 -0.00035542 -0.00069927 0.0060469 0 0 0
213 6586.493070 9.94125 9.94125 4.51875 0.00210503 -0.000148062 0.00308832 0 0 0
214 6586.493070 8.13375 11.7488 0.90375 0.00143628 0.00205705 -0.000809593 0 0 0
215 6586.493070 9.94125 11.7488 2.71125 -0.00146602 0.00276032 0.00684552 0 0 0
216 6586.493070 8.13375 11.7488 4.51875 0.00321569 0.00400438 -0.00235438 0 0 0
217 6586.493070 11.7488 6.32625 2.71125 0.000376649 0.000383609 -0.00129142 0 0 0
218 6586.493070 11.7488 8.13375 0.90375 -0.000505054 -0.00313459 -0.00296085 0 0 0
219 6586.493070 11.7488 9.94125 2.71125 0.00383238 0.00247244 -0.00232748 0 0 0
220 6586.493070 11.7488 8.13375 4.51875 -0.00245435 0.00529008 -0.00104307 0 0 0
221 6586.493070 11.7488 11.7488 0.90375 0.00404809 -0.00171293 0.00335044 0 0 0
222 6586.493070 11.7488 11.7488 4.51875 -0.00082479 0.0019807 0.00366591 0 0 0
223 6586.493070 13.5563 6.32625 0.90375 0.00148641 -0.0020724 -0.00104236 0 0 0
224 6586.493070 13.5563 6.32625 4.51875 0.00144856 0.0019948 0.00409326 0 0 0
225 6586.493070 13.5563 8.13375 2.71125 0.00065397 0.0076585 -0.00103553 0 0 0
226 6586.493070 13.5563 9.94125 0.90375 -0.000496987 0.000969843 -0.00135358 0 0 0
227 6586.493070 13.5563 9.94125 4.51875 0.00132042 0.00214754 8.13272e-05 0 0 0
228 6586.493070 13.5563 11.7488 2.71125 0.000655163 0.0014979 0.00548532 0 0 0
229 6586.493070 15.3638 6.32625 2.71125 -0.000456443 0.000292571 0.00351071 0 0 0
230 6586.493070 17.1713 6.32625 0.90375 0.00122387 0.00159934 -0.00607697 0 0 0
231 6586.493070 17.1713 6.32625 4.51875 -0.00190971 -0.00271059 -0.00226298 0 0 0
232 6586.493070 15.3638 8.13375 0.90375 0.00211795 -0.000645143 -0.000454135 0 0 0
233 6586.493070 15.3638 9.94125 2.71125 -0.00106578 -0.00155585 0.00184325 0 0 0
234 6586.493070 17.1713 8.13375 2.71125 0.000467944 -0.00243283 0.000471687 0 0 0
235 6586.493070 17.1713 9.94125 0.90375 0.002098 -0.00494425 -0.00206635 0 0 0
236 6586.493070 15.3638 8.13375 4.51875 -0.0038817 -0.000840079 -3.93712e-05 0 0 0
237 6586.493070 17.1713 9.94125 4.51875 -0.00124553 -9.49088e-06 -0.00303996 0 0 0
238 6586.493070 15.3638 11.7488 0.90375 0.000706543 0.00171087 0.00670717 0 0 0
239 6586.493070 17.1713 11.7488 2.71125 0.00175889 2.65558e-06 -0.000980861 0 0 0
240 6586.493070 15.3638 11.7488 4.51875 -0.00037758 -0.00452698 -0.000296536 0 0 0
241 6586.493070 18.9788 6.32625 2.71125 0.00520199 -0.00282113 -0.00212707 0 0 0
242 6586.493070 20.7863 6.32625 0.90375 0.00101294 -0.00100695 0.00231938 0 0 0
243 6586.493070 20.7863 6.32625 4.51875 0.00092543 -0.00125089 0.000262722 0 0 0
244 6586.493070 18.9788 8.13375 0.90375 -0.00204092 -0.00190106 -0.00254046 0 0 0
245 6586.493070 18.9788 9.94125 2.71125 0.000275681 0.00363005 0.00331584 0 0 0
246 6586.493070 20.7863 8.13375 2.71125 0.0023117 0.000215849 0.00188006 0 0 0
247 6586.493070 20.7863 9.94125 0.90375 -0.002834 -0.00164716 -0.00105592 0 0 0
248 6586.493070 18.9788 8.13375 4.51875 0.00111832 -0.000684971 0.00100377 0 0 0
249 6586.493070 20.7863 9.94125 4.51875 -0.00402423 -0.00377582 0.00650484 0 0 0
250 6586.493070 18.9788 11.7488 0.90375 -3.35197e-05 0.00152895 -0.000498089 0 0 0
251 6586.493070 20.7863 11.7488 2.71125 -0.00117847 0.00130791 0.0039919 0 0 0
252 6586.493070 18.9788 11.7488 4.51875 0.000302499 -0.00603408 0.00101931 0 0 0
253 6586.493070 22.5938 6.32625 2.71125 -0.00414624 0.000279434 -0.000391663 0 0 0
254 6586.493070 22.5938 8.13375 0.90375 -0.000106498 0.00182356 0.000660836 0 0 0
255 6586.493070 22.5938 9.94125 2.71125 0.000461557 -0.00131032 0.000281615 0 0 0
256 6586.493070 22.5938 8.13375 4.51875 0.000908784 0.00193509 -3.18067e-06 0 0 0
257 6586.493070 22.5938 11.7488 0.90375 0.000428622 -0.00397506 -0.00233349 0 0 0
258 6586.493070 22.5938 11.7488 4.51875 0.00248101 0.00223832 -0.000739738 0 0 0
259 6586.493070 24.4013 6.32625 0.90375 0.00139759 0.00185636 -0.0107862 0 0 0
260 6586.493070 24.4013 6.32625 4.51875 -0.00438308 0.00168991 -0.00227873 0 0 0
261 6586.493070 24.4013 8.13375 2.71125 0.00141927 -0.000181583 0.00291309 0 0 0
262 6586.493070 24.4013 9.94125 0.90375 0.00324158 0.000998118 -0.00101267 0 0 0
263 6586.493070 24.4013 9.94125 4.51875 0.00656262 -0.00107863 0.00360541 0 0 0
264 6586.493070 24.4013 11.7488 2.71125 -0.000405008 0.000570365 0.00401008 0 0 0
265 6586.493070 26.2088 6.32625 2.71125 -0.000423148 -0.000786852 0.00329789 0 0 0
266 6586.493070 28.0163 6.32625 0.90375 -0.000681525 0.00293251 0.00218331 0 0 0
267 6586.493070 28.0163 6.32625 4.51875 0.00190704 -0.0017096 -0.00178287 0 0 0
268 6586.493070 26.2088 8.13375 0.90375 -0.00305561 0.000116371 0.00585015 0 0 0
269 6586.493070 26.2088 9.94125 2.71125 0.00260726 -0.000410683 0.00458767 0 0 0
270 6586.493070 28.0163 8.13375 2.71125 0.00488964 0.000644829 0.000546995 0 0 0
271 6586.493070 28.0163 9.94125 0.90375 0.000197638 -0.0022618 0.000757274 0 0 0
272 6586.493070 26.2088 8.13375 4.51875 -0.00123763 -0.00308344 -0.00273051 0 0 0
273 6586.493070 28.0163 9.94125 4.51875 0.00295099 0.00384648 -0.00347328 0 0 0
274 6586.493070 26.2088 11.7488 0.90375 -0.000467662 0.00325452 0.00323694 0 0 0
275 6586.493070 28.0163 11.7488 2.71125 0.00252021 -0.00253716 0.00223408 0 0 0
276 6586.493070 26.2088 11.7488 4.51875 0.00277767 0.00190862 -0.00440177 0 0 0
277 6586.493070 29.8238 6.32625 2.71125 0.0027377 -0.000274678 0.001018 0 0 0
278 6586.493070 29.8238 8.13375 0.90375 0.000414393 -0.00376036 -0.00112525 0 0 0
279 6586.493070 29.8238 9.94125 2.71125 -0.000864328 -0.00184478 -0.000942641 0 0 0
280 6586.493070 29.8238 8.13375 4.51875 0.000572376 -0.000595196 -0.00140565 0 0 0
281 6586.493070 29.8238 11.7488 0.90375 0.00206867 0.000381477 -0.000299669 0 0 0
282 6586.493070 29.8238 11.7488 4.51875 -0.000145939 0.00493876 0.00645819 0 0 0
283 6586.493070 31.6313 6.32625 0.90375 0.00114546 0.00473822 0.00142531 0 0 0
284 6586.493070 31.6313 6.32625 4.51875 0.00201321 0.000773491 -0.00600176 0 0 0
285 6586.493070 31.6313 8.13375 2.71125 0.00247557 0.00356358 -9.53628e-05 0 0 0
286 6586.493070 31.6313 9.94125 0.90375 -0.00556778 -0.00086172 -0.00173358 0 0 0
287 6586.493070 31.6313 9.94125 4.51875 -0.000675204 0.00145744 0.00286172 0 0 0
288 6586.493070 31.6313 11.7488 2.71125 0.00237761 0.00346567 0.00075114 0 0 0
289 6586.493070 33.4387 6.32625 2.71125 0.00369305 -0.000863632 -0.00135901 0 0 0
290 6586.493070 35.2463 6.32625 0.90375 0.00371585 -0.00376396 0.00161325 0 0 0
291 6586.493070 35.2463 6.32625 4.51875 0.00137417 0.00345023 -0.00205313 0 0 0
292 6586.493070 33.4387 8.13375 0.90375 0.00197563 -0.00101137 0.000852532 0 0 0
293 6586.493070 33.4387 9.94125 2.71125 -0.00311686 -0.00150386 0.0019152 0 0 0
294 6586.493070 35.2463 8.13375 2.71125 -0.0025268 0.00321078 0.00153321 0 0 0
295 6586.493070 35.2463 9.94125 0.90375 -0.000993268 0.00255189 -0.00340007 0 0 0
296 6586.493070 33.4387 8.13375 4.51875 -0.00466195 -0.000893147 0.00142461 0 0 0
297 6586.493070 35.2463 9.94125 4.51875 0.00182573 0.00154359 -0.00291763 0 0 0
298 6586.493070 33.4387 11.7488 0.90375 0.00553741 0.00280993 0.000465105 0 0 0
299 6586.493070 35.2463 11.7488 2.71125 -0.00196455 -0.00528703 0.00107187 0 0 0
300 6586.493070 33.4387 11.7488 4.51875 0.00430545 0.00510486 0.000918915 0 0 0
301 6586.493070 37.0538 6.32625 2.71125 0.00586088 -0.00043631 -0.00206346 0 0 0
302 6586.493070 38.8613 6.32625 0.90375 -0.000757872 0.00404172 -0.00556767 0 0 0
303 6586.493070 38.8613 6.32625 4.51875 0.00019933 0.00420487 -0.00208985 0 0 0
304 6586.493070 37.0538 8.13375 0.90375 -0.00264607 -0.00226642 -0.00286532 0 0 0
305 6586.493070 37.0538 9.94125 2.71125 0.00476057 -0.00383504 -0.00479026 0 0 0
306 6586.493070 38.8613 8.13375 2.71125 0.00301023 -0.00358985 0.00388734 0 0 0
307 6586.493070 38.8613 9.94125 0.90375 0.00199624 0.00137551 0.000332647 0 0 0
308 6586.493070 37.0538 8.13375 4.51875 -0.000283309 0.00020376 -0.00197722 0 0 0
309 6586.493070 38.8613 9.94125 4.51875 -0.0032425 -0.000569833 0.00109601 0 0 0
310 6586.493070 37.0538 11.7488 0.90375 0.00480271 -0.00140998 -0.000899732 0 0 0
311 6586.493070 38.8613 11.7488 2.71125 -0.00418332 0.00376922 -0.000938862 0 0 0
312 6586.493070 37.0538 11.7488 4.51875 -0.00263614 -0.00125429 0.00245912 0 0 0
313 6586.493070 40.6688 6.32625 2.71125 0.00355537 -0.00215549 0.000491359 0 0 0
314 6586.493070 40.6688 8.13375 0.90375 0.00218114 -0.00375833 -0.00212218 0 0 0
315 6586.493070 40.6688 9.94125 2.71125 0.00042428 -0.00482302 -0.00165293 0 0 0
316 6586.493070 40.6688 8.13375 4.51875 0.00323842 0.00279139 -0.00109711 0 0 0
317 6586.493070 40.6688 11.7488 0.90375 -0.0031932 0.00104194 -0.00573043 0 0 0
318 6586.493070 40.6688 11.7488 4.51875 -0.00540543 0.000173066 0.000114696 0 0 0
319 6586.493070 42.4763 6.32625 0.90375 0.00596542 -0.00230283 -0.00332607 0 0 0
320 6586.493070 42.4763 6.32625 4.51875 -0.00273289 -0.000665622 0.000390555 0 0 0
321 6586.493070 42.4763 8.13375 2.71125 -0.00220384 -0.00441592 -0.00187597 0 0 0
322 6586.493070 42.4763 9.94125 0.90375 0.00061005 0.0051195 6.52783e-05 0 0 0
323 6586.493070 42.4763 9.94125 4.51875 0.00228273 -0.000844041 0.0014587 0 0 0
324 6586.493070 42.4763 11.7488 2.71125 0.00191054 -0.00573454 -0.00220161 0 0 0
325 6586.493070 44.2838 6.32625 2.71125 0.00111417 -0.00349309 0.00323739 0 0 0
326 6586.493070 46.0913 6.32625 0.90375 0.00167695 0.00635869 -0.00049551 0 0 0
327 6586.493070 46.0913 6.32625 4.51875 0.00147271 -0.00203417 0.00101454 0 0 0
328 6586.493070 44.2838 8.13375 0.90375 0.00308017 -0.00174655 -0.00140946 0 0 0
329 6586.493070 44.2838 9.94125 2.71125 -0.00211566 0.000373898 0.00181902 0 0 0
330 6586.493070 46.0913 8.13375 2.71125 0.00199678 0.00214369 -0.00270331 0 0 0
331 6586.493070 46.0913 9.94125 0.90375 -0.000546649 -0.000507504 -0.0017215 0 0 0
332 6586.493070 44.2838 8.13375 4.51875 0.00440791 -0.00289663 0.00233798 0 0 0
333 6586.493070 46.0913 9.94125 4.51875 -0.00133014 -0.00301194 0.00393167 0 0 0
334 6586.493070 44.2838 11.7488 0.90375 -2.65454e-05 0.00073144 -0.00536212 0 0 0
335 6586.493070 46.0913 11.7488 2.71125 -0.00190481 0.000746361 0.00376284 0 0 0
336 6586.493070 44.2838 11.7488 4.51875 0.00236843 -0.00465432 0.00183242 0 0 0
337 6586.493070 47.8987 6.32625 2.71125 0.000426746 0.00147308 -0.00191665 0 0 0
338 6586.493070 47.8987 8.13375 0.90375 -0.00082081 0.00078673 -0.00197024 0 0 0
339 6586.493070 47.8987 9.94125 2.71125 0.00104298 0.00117286 0.00271122 0 0 0
340 6586.493070 47.8987 8.13375 4.51875 -0.000370594 0.00554866 -0.00103208 0 0 0
341 6586.493070 47.8987 11.7488 0.90375 0.00256518 -0.00486984 0.00118002 0 0 0
342 6586.493070 47.8987 11.7488 4.51875 -0.0025403 -0.00226473 -0.00232141 0 0 0
343 6586.493070 49.7063 6.32625 0.90375 -0.00221709 -0.00259405 -0.00369282 0 0 0
344 6586.493070 49.7063 6.32625 4.51875 0.00443362 0.00247143 -6.47616e-05 0 0 0
345 6586.493070 49.7063 8.13375 2.71125 -0.00317283 8.3939e-05 0.00414949 0 0 0
346 6586.493070 49.7063 9.94125 0.90375 0.00247725 -0.0016472 0.00282789 0 0 0
347 6586.493070 49.7063 9.94125 4.51875 -0.00619427 0.000381825 0.000572207 0 0 0
348 6586.493070 49.7063 11.7488 2.71125 0.00263824 8.33948e-05 0.00169217 0 0 0
349 6586.493070 51.5138 6.32625 2.71125 0.00223487 -0.00463845 0.000362284 0 0 0
350 6586.493070 53.3213 6.32625 0.90375 0.00112941 0.00410163 -0.000286043 0 0 0
351 6586.493070 53.3213 6.32625 4.51875 -0.000447008 0.00203555 -0.00413751 0 0 0
352 6586.493070 51.5138 8.13375 0.90375 0.0023851 -0.000705062 -0.00517536 0 0 0
353 6586.493070 51.5138 9.94125 2.71125 -0.000575735 -0.00625638 -0.00243615 0 0 0
354 6586.493070 53.3213 8.13375 2.71125 -0.00233525 -0.00447447 0.00118134 0 0 0
355 6586.493070 53.3213 9.94125 0.90375 0.00540571 0.00285716 -0.0021662 0 0 0
356 6586.493070 51.5138 8.13375 4.51875 0.00129374 -0.0024956 0.00634846 0 0 0
357 6586.493070 53.3213 9.94125 4.51875 -0.00171702 0.000637692 0.000236896 0 0 0
358 6586.493070 51.5138 11.7488 0.90375 -0.00604896 0.000252987 -0.00240377 0 0 0
359 6586.493070 53.3213 11.7488 2.71125 -0.00304489 -0.0034663 -7.88229e-05 0 0 0
360 6586.493070 51.5138 11.7488 4.51875 0.00394608 0.00290131 0.00180386 0 0 0
361 6586.493070 55.1288 6.32625 2.71125 0.00188232 0.00411636 -0.00446375 0 0 0
362 6586.493070 56.9363 6.32625 0.90375 -0.00052725 0.000335332 0.00086921 0 0 0
363 6586.493070 56.9363 6.32625 4.51875 0.00286122 0.00499659 0.000494277 0 0 0
364 6586.493070 55.1288 8.13375 0.90375 0.00361382 0.0038454 0.0039426 0 0 0
365 6586.493070 55.1288 9.94125 2.71125 0.00236736 0.00398499 -0.00153282 0 0 0
366 6586.493070 56.9363 8.13375 2.71125 -0.00397365 -0.00055077 -0.000425237 0 0 0
367 6586.493070 56.9363 9.94125 0.90375 0.00162189 4.26551e-05 0.00306579 0 0 0
368 6586.493070 55.1288 8.13375 4.51875 0.000407138 -0.00146202 0.00292557 0 0 0
369 6586.493070 56.9363 9.94125 4.51875 0.000578444 -0.00364565 0.00277348 0 0 0